<LesHouchesEvents version="3.0">
<header>
<!--
#*********************************************************************
#                                                                    *
#                        MadGraph5_aMC@NLO                           *
#                                                                    *
#                           Going Beyond                             *
#                                                                    *
#                   http://madgraph.hep.uiuc.edu                     *
#                   http://madgraph.phys.ucl.ac.be                   *
#                   http://amcatnlo.cern.ch                          *
#                                                                    *
#                     The MadGraph5_aMC@NLO team                     *
#                                                                    *
#....................................................................*
#                                                                    *
# This file contains all the information necessary to reproduce      *
# the events generated:                                              *
#                                                                    *
# 1. software version                                                *
# 2. proc_card          : code generation info including model       *
# 3. param_card         : model primary parameters in the LH format  *
# 4. run_card           : running parameters (collider and cuts)     *
# 5. pythia_card        : present only if pythia has been run        *
# 6. pgs_card           : present only if pgs has been run           *
# 7. delphes_cards      : present only if delphes has been run       *
#                                                                    *
#                                                                    *
#*********************************************************************
-->
<MGVersion>
2.6.5
</MGVersion>
<MG5ProcCard>
<![CDATA[
#************************************************************
#*                     MadGraph5_aMC@NLO                    *
#*                                                          *
#*                *                       *                 *
#*                  *        * *        *                   *
#*                    * * * * 5 * * * *                     *
#*                  *        * *        *                   *
#*                *                       *                 *
#*                                                          *
#*                                                          *
#*         VERSION 2.6.5                 2018-02-03         *
#*                                                          *
#*    The MadGraph5_aMC@NLO Development Team - Find us at   *
#*    https://server06.fynu.ucl.ac.be/projects/madgraph     *
#*                                                          *
#************************************************************
#*                                                          *
#*               Command File for MadGraph5_aMC@NLO         *
#*                                                          *
#*     run as ./bin/mg5_aMC  filename                       *
#*                                                          *
#************************************************************
set default_unset_couplings 99
set group_subprocesses Auto
set ignore_six_quark_processes False
set loop_optimized_output True
set loop_color_flows False
set gauge unitary
set complex_mass_scheme False
set max_npoint_for_channel 0
import model sm
define p = g u c d s u~ c~ d~ s~
define j = g u c d s u~ c~ d~ s~
define l+ = e+ mu+
define l- = e- mu-
define vl = ve vm vt
define vl~ = ve~ vm~ vt~
import model MSSM_SLHA2-WinoLike
generate n1 n1 > w- w+ a a
output n1n1_wwaa_Aug
]]>
</MG5ProcCard>
<MGProcCard>
#*********************************************************************
#                        MadGraph/MadEvent                           *
#                   http://madgraph.hep.uiuc.edu                     *
#                                                                    *
#                          proc_card.dat                             *
#*********************************************************************
#                                                                    *
#            This Files is generated by MADGRAPH 5                   *
#                                                                    *
# WARNING: This Files is generated for MADEVENT (compatibility issue)*
#          This files is NOT a valid MG4 proc_card.dat               *
#          Running this in MG4 will NEVER reproduce the result of MG5*
#                                                                    *
#*********************************************************************
#*********************************************************************
# Process(es) requested : mg2 input                                  *
#*********************************************************************
# Begin PROCESS # This is TAG. Do not modify this line
n1 n1 > w- w+ a a           #Process
# Be carefull the coupling are here in MG5 convention
          
end_coup           # End the couplings input

done               # this tells MG there are no more procs
# End PROCESS  # This is TAG. Do not modify this line
#*********************************************************************
# Model information                                                  *
#*********************************************************************
# Begin MODEL  # This is TAG. Do not modify this line
MSSM_SLHA2-WinoLike
# End   MODEL  # This is TAG. Do not modify this line
#*********************************************************************
# Start multiparticle definitions                                    *
#*********************************************************************
# Begin MULTIPARTICLES # This is TAG. Do not modify this line

# End  MULTIPARTICLES # This is TAG. Do not modify this line
</MGProcCard>
<MGRunCard>
<![CDATA[
#*********************************************************************
#                       MadGraph5_aMC@NLO                            *
#                                                                    *
#                     run_card.dat MadEvent                          *
#                                                                    *
#  This file is used to set the parameters of the run.               *
#                                                                    *
#  Some notation/conventions:                                        *
#                                                                    *
#   Lines starting with a '# ' are info or comments                  *
#                                                                    *
#   mind the format:   value    = variable     ! comment             *
#                                                                    *
#   To display more options, you can type the command:               *
#      update full_run_card                                          *
#*********************************************************************
#
#*******************                                                 
# Running parameters
#*******************                                                 
#                                                                    
#*********************************************************************
# Tag name for the run (one word)                                    *
#*********************************************************************
  tag_1     = run_tag ! name of the run 
#*********************************************************************
# Number of events and rnd seed                                      *
# Warning: Do not generate more than 1M events in a single run       *
# If you want to run Pythia, avoid more than 50k events in a run.    *
#*********************************************************************
  10000 = nevents ! Number of unweighted events requested 
 45 = iseed   ! rnd seed (0=assigned automatically=default))
#*********************************************************************
# Collider type and energy                                           *
# lpp: 0=No PDF, 1=proton, -1=antiproton, 2=photon from proton,      *
#                                         3=photon from electron     *
#*********************************************************************
     0        = lpp1    ! beam 1 type 
     0        = lpp2    ! beam 2 type
     10000.1     = ebeam1  ! beam 1 total energy in GeV
     10000.1     = ebeam2  ! beam 2 total energy in GeV
# To see polarised beam options: type "update beam_pol"
#*********************************************************************
# PDF CHOICE: this automatically fixes also alpha_s and its evol.    *
#*********************************************************************
     nn23lo1    = pdlabel     ! PDF set                                     
     230000    = lhaid     ! if pdlabel=lhapdf, this is the lhapdf number
# To see heavy ion options: type "update ion_pdf"
#*********************************************************************
# Renormalization and factorization scales                           *
#*********************************************************************
 False = fixed_ren_scale  ! if .true. use fixed ren scale
 False        = fixed_fac_scale  ! if .true. use fixed fac scale
 91.188  = scale            ! fixed ren scale
 91.188  = dsqrt_q2fact1    ! fixed fact scale for pdf1
 91.188  = dsqrt_q2fact2    ! fixed fact scale for pdf2
 -1 = dynamical_scale_choice ! Choose one of the preselected dynamical choices
 1.0  = scalefact        ! scale factor for event-by-event scales
#*********************************************************************
# Type and output format
#*********************************************************************
  False     = gridpack  !True = setting up the grid pack
  -1.0 = time_of_flight ! threshold (in mm) below which the invariant livetime is not written (-1 means not written)
  3.0 = lhe_version       ! Change the way clustering information pass to shower.        
  True = clusinfo         ! include clustering tag in output
  average =  event_norm       ! average/sum. Normalization of the weight in the LHEF

#*********************************************************************
# Matching parameter (MLM only)
#*********************************************************************
 0 = ickkw            ! 0 no matching, 1 MLM
 1.0 = alpsfact         ! scale factor for QCD emission vx
 False = chcluster        ! cluster only according to channel diag
 5 = asrwgtflavor     ! highest quark flavor for a_s reweight
 False  = auto_ptj_mjj  ! Automatic setting of ptj and mjj if xqcut >0
                                   ! (turn off for VBF and single top processes) 
 0.0   = xqcut   ! minimum kt jet measure between partons
#*********************************************************************
#
#*********************************************************************
# handling of the helicities:
#  0: sum over all helicities
#  1: importance sampling over helicities
#*********************************************************************
   0  = nhel          ! using helicities importance sampling or not.
#*********************************************************************
# Generation bias, check the wiki page below for more information:   *
#  'cp3.irmp.ucl.ac.be/projects/madgraph/wiki/LOEventGenerationBias' *
#*********************************************************************
 None = bias_module  ! Bias type of bias, [None, ptj_bias, -custom_folder-]
 {} = bias_parameters ! Specifies the parameters of the module.
#
#*******************************                                                 
# Parton level cuts definition *
#*******************************                                     
#                                                                    
#
#*********************************************************************
# BW cutoff (M+/-bwcutoff*Gamma) ! Define on/off-shell for "$" and decay  
#*********************************************************************
  15.0  = bwcutoff      ! (M+/-bwcutoff*Gamma)
#*********************************************************************
# Apply pt/E/eta/dr/mij/kt_durham cuts on decay products or not
# (note that etmiss/ptll/ptheavy/ht/sorted cuts always apply)
#*********************************************************************
   False  = cut_decays    ! Cut decay products 
#*********************************************************************
# Standard Cuts                                                      *
#*********************************************************************
# Minimum and maximum pt's (for max, -1 means no cut)                *
#*********************************************************************
 20.0  = ptj       ! minimum pt for the jets 
 0.0  = ptb       ! minimum pt for the b 
 10.0  = pta       ! minimum pt for the photons 
 10.0  = ptl       ! minimum pt for the charged leptons 
 0.0  = misset    ! minimum missing Et (sum of neutrino's momenta)
 -1.0  = ptjmax    ! maximum pt for the jets
 -1.0  = ptbmax    ! maximum pt for the b
 -1.0  = ptamax    ! maximum pt for the photons
 -1.0  = ptlmax    ! maximum pt for the charged leptons
 -1.0  = missetmax ! maximum missing Et (sum of neutrino's momenta)
 {} = pt_min_pdg ! pt cut for other particles (use pdg code). Applied on particle and anti-particle
 {}	= pt_max_pdg ! pt cut for other particles (syntax e.g. {6: 100, 25: 50}) 
#*********************************************************************
# Minimum and maximum E's (in the center of mass frame)              *
#*********************************************************************
  0.0  = ej     ! minimum E for the jets 
  0.0  = eb     ! minimum E for the b 
  0.0  = ea     ! minimum E for the photons 
  0.0  = el     ! minimum E for the charged leptons 
  -1.0   = ejmax ! maximum E for the jets
 -1.0   = ebmax ! maximum E for the b
 -1.0   = eamax ! maximum E for the photons
 -1.0   = elmax ! maximum E for the charged leptons
 {} = e_min_pdg ! E cut for other particles (use pdg code). Applied on particle and anti-particle
 {} = e_max_pdg ! E cut for other particles (syntax e.g. {6: 100, 25: 50}) 
#*********************************************************************
# Maximum and minimum absolute rapidity (for max, -1 means no cut)   *
#*********************************************************************
  5.0 = etaj    ! max rap for the jets 
  -1.0  = etab    ! max rap for the b
 2.5  = etaa    ! max rap for the photons 
 2.5  = etal    ! max rap for the charged leptons 
 0.0  = etajmin ! min rap for the jets
 0.0  = etabmin ! min rap for the b
 0.0  = etaamin ! min rap for the photons
 0.0  = etalmin ! main rap for the charged leptons
 {} = eta_min_pdg ! rap cut for other particles (use pdg code). Applied on particle and anti-particle
 {} = eta_max_pdg ! rap cut for other particles (syntax e.g. {6: 2.5, 23: 5})
#*********************************************************************
# Minimum and maximum DeltaR distance                                *
#*********************************************************************
 0.4 = drjj    ! min distance between jets 
 0.0   = drbb    ! min distance between b's 
 0.4 = drll    ! min distance between leptons 
 0.4 = draa    ! min distance between gammas 
 0.0   = drbj    ! min distance between b and jet 
 0.4 = draj    ! min distance between gamma and jet 
 0.4 = drjl    ! min distance between jet and lepton 
 0.0   = drab    ! min distance between gamma and b 
 0.0   = drbl    ! min distance between b and lepton 
 0.4 = dral    ! min distance between gamma and lepton 
 -1.0  = drjjmax ! max distance between jets
 -1.0  = drbbmax ! max distance between b's
 -1.0  = drllmax ! max distance between leptons
 -1.0  = draamax ! max distance between gammas
 -1.0  = drbjmax ! max distance between b and jet
 -1.0  = drajmax ! max distance between gamma and jet
 -1.0  = drjlmax ! max distance between jet and lepton
 -1.0  = drabmax ! max distance between gamma and b
 -1.0  = drblmax ! max distance between b and lepton
 -1.0  = dralmax ! maxdistance between gamma and lepton
#*********************************************************************
# Minimum and maximum invariant mass for pairs                       *
# WARNING: for four lepton final state mmll cut require to have      *
#          different lepton masses for each flavor!                  *           
#*********************************************************************
 0.0   = mmjj    ! min invariant mass of a jet pair 
 0.0   = mmbb    ! min invariant mass of a b pair 
 0.0   = mmaa    ! min invariant mass of gamma gamma pair
 0.0   = mmll    ! min invariant mass of l+l- (same flavour) lepton pair
 -1.0  = mmjjmax ! max invariant mass of a jet pair
 -1.0  = mmbbmax ! max invariant mass of a b pair
 -1.0  = mmaamax ! max invariant mass of gamma gamma pair
 -1.0  = mmllmax ! max invariant mass of l+l- (same flavour) lepton pair
 {} = mxx_min_pdg ! min invariant mass of a pair of particles X/X~ (e.g. {6:250})
 {'default': False} = mxx_only_part_antipart ! if True the invariant mass is applied only 
                       ! to pairs of particle/antiparticle and not to pairs of the same pdg codes.  
#*********************************************************************
# Minimum and maximum invariant mass for all letpons                 *
#*********************************************************************
 0.0   = mmnl    ! min invariant mass for all letpons (l+- and vl) 
 -1.0  = mmnlmax ! max invariant mass for all letpons (l+- and vl) 
#*********************************************************************
# Minimum and maximum pt for 4-momenta sum of leptons                *
#*********************************************************************
 0.0   = ptllmin  ! Minimum pt for 4-momenta sum of leptons(l and vl)
 -1.0  = ptllmax  ! Maximum pt for 4-momenta sum of leptons(l and vl)
#*********************************************************************
# Inclusive cuts                                                     *
#*********************************************************************
 0.0  = ptheavy   ! minimum pt for at least one heavy final state
 0.0  = xptj ! minimum pt for at least one jet  
 0.0  = xptb ! minimum pt for at least one b 
 0.0  = xpta ! minimum pt for at least one photon 
 0.0  = xptl ! minimum pt for at least one charged lepton 
#*********************************************************************
# Control the pt's of the jets sorted by pt                          *
#*********************************************************************
 0.0   = ptj1min ! minimum pt for the leading jet in pt
 0.0   = ptj2min ! minimum pt for the second jet in pt
 0.0   = ptj3min ! minimum pt for the third jet in pt
 0.0   = ptj4min ! minimum pt for the fourth jet in pt
 -1.0  = ptj1max ! maximum pt for the leading jet in pt 
 -1.0  = ptj2max ! maximum pt for the second jet in pt
 -1.0  = ptj3max ! maximum pt for the third jet in pt
 -1.0  = ptj4max ! maximum pt for the fourth jet in pt
 0   = cutuse  ! reject event if fails any (0) / all (1) jet pt cuts
#*********************************************************************
# Control the pt's of leptons sorted by pt                           *
#*********************************************************************
 0.0   = ptl1min ! minimum pt for the leading lepton in pt
 0.0   = ptl2min ! minimum pt for the second lepton in pt
 0.0   = ptl3min ! minimum pt for the third lepton in pt
 0.0   = ptl4min ! minimum pt for the fourth lepton in pt
 -1.0  = ptl1max ! maximum pt for the leading lepton in pt 
 -1.0  = ptl2max ! maximum pt for the second lepton in pt
 -1.0  = ptl3max ! maximum pt for the third lepton in pt
 -1.0  = ptl4max ! maximum pt for the fourth lepton in pt
#*********************************************************************
# Control the Ht(k)=Sum of k leading jets                            *
#*********************************************************************
 0.0   = htjmin ! minimum jet HT=Sum(jet pt)
 -1.0  = htjmax ! maximum jet HT=Sum(jet pt)
 0.0   = ihtmin  !inclusive Ht for all partons (including b)
 -1.0  = ihtmax  !inclusive Ht for all partons (including b)
 0.0   = ht2min ! minimum Ht for the two leading jets
 0.0   = ht3min ! minimum Ht for the three leading jets
 0.0   = ht4min ! minimum Ht for the four leading jets
 -1.0  = ht2max ! maximum Ht for the two leading jets
 -1.0  = ht3max ! maximum Ht for the three leading jets
 -1.0  = ht4max ! maximum Ht for the four leading jets
#***********************************************************************
# Photon-isolation cuts, according to hep-ph/9801442                   *
# When ptgmin=0, all the other parameters are ignored                  *
# When ptgmin>0, pta and draj are not going to be used                 *
#***********************************************************************
 0.0 = ptgmin ! Min photon transverse momentum
 0.4 = R0gamma ! Radius of isolation code
 1.0 = xn ! n parameter of eq.(3.4) in hep-ph/9801442
 1.0 = epsgamma ! epsilon_gamma parameter of eq.(3.4) in hep-ph/9801442
 True = isoEM ! isolate photons from EM energy (photons and leptons)
#*********************************************************************
# WBF cuts                                                           *
#*********************************************************************
 0.0   = xetamin ! minimum rapidity for two jets in the WBF case  
 0.0   = deltaeta ! minimum rapidity for two jets in the WBF case 
#***********************************************************************
# Turn on either the ktdurham or ptlund cut to activate                *
# CKKW(L) merging with Pythia8 [arXiv:1410.3012, arXiv:1109.4829]      *
#***********************************************************************
 -1.0  =  ktdurham        
 0.4   =  dparameter
 -1.0  =  ptlund
 1, 2, 3, 4, 5, 6, 21, 1000001, 1000002, 1000003, 1000004, 1000005, 1000006, 1000021, 2000001, 2000002, 2000003, 2000004, 2000005, 2000006  =  pdgs_for_merging_cut ! PDGs for two cuts above   
#*********************************************************************
# maximal pdg code for quark to be considered as a light jet         *
# (otherwise b cuts are applied)                                     *
#*********************************************************************
 4 = maxjetflavor    ! Maximum jet pdg code
#*********************************************************************
#
#*********************************************************************
# Store info for systematics studies                                 *
# WARNING: Do not use for interference type of computation           *
#*********************************************************************
   False  = use_syst      ! Enable systematics studies
#
systematics = systematics_program ! none, systematics [python], SysCalc [depreceted, C++]
['--mur=0.5,1,2', '--muf=0.5,1,2', '--pdf=errorset'] = systematics_arguments ! see: https://cp3.irmp.ucl.ac.be/projects/madgraph/wiki/Systematics#Systematicspythonmodule
# Syscalc is deprecated but to see the associate options type'update syscalc'
]]>
</MGRunCard>
<slha>
######################################################################
## PARAM_CARD AUTOMATICALY GENERATED BY MG5 FOLLOWING UFO MODEL   ####
######################################################################
##                                                                  ##
##  Width set on Auto will be computed following the information    ##
##        present in the decay.py files of the model.               ##
##        See  arXiv:1402.1178 for more details.                    ##
##                                                                  ##
######################################################################

###################################
## INFORMATION FOR DSQMIX
###################################
Block dsqmix 
    1   1 1.000000e+00 # RRd1x1 
    2   2 1.000000e+00 # RRd2x2 
    3   3 9.387379e-01 # set of param :1*RRd3x3, 1*RRd6x6 
    3   6 3.446319e-01 # set of param :1*RRd3x6, -1*RRd6x3 
    4   4 1.000000e+00 # RRd4x4 
    5   5 1.000000e+00 # RRd5x5 
    6   3 -3.446319e-01 # MG5 will not use this value use instead -1*mdl_RRd3x6 
    6   6 9.387379e-01 # MG5 will not use this value use instead 1*mdl_RRd3x3 

###################################
## INFORMATION FOR FRALPHA
###################################
Block fralpha 
    1 -1.138252e-01 # alp 

###################################
## INFORMATION FOR HMIX
###################################
Block hmix 
    1 3.576810e+02 # RMUH 
    2 9.748624e+00 # tb 
    4 1.664391e+05 # MA2 

###################################
## INFORMATION FOR MASS
###################################
Block mass 
    5 4.889917e+00 # MB 
    6 1.750000e+02 # MT 
   15 1.777000e+00 # Mta 
   23 9.118760e+01 # MZ 
   24 7.982901e+01 # MW 
   25 1.108991e+02 # MH01 
   35 3.999601e+07 # MH02 
   36 3.995839e+02 # MA0 
   37 4.078790e+07 # MH 
  1000002 1.500000e+02 # Msu1 
  1000003 5.684411e+02 # Msd2 
  1000004 5.611190e+02 # Msu2 
  1000013 2.029157e+02 # Msl2 
  1000014 1.852583e+02 # Msn2 
  1000022 10000 # Mneu1 
  1000023 1.000000e+07 # set of param :1*Mneu2, 1*Mneu3, 1*Mneu4, 1*Mch2, 1*Mgo, 1*Msn1, 1*Msn3, 1*Msl1, 1*Msl3, 1*Msl4, 1*Msl6, 1*Msu3, 1*Msu4, 1*Msu6, 1*Msd1, 1*Msd3, 1*Msd4, 1*Msd6 
  1000024 10000.1 # Mch1 
  2000003 5.452285e+02 # Msd5 
  2000004 5.492593e+02 # Msu5 
  2000013 1.441028e+02 # Msl5 
## Dependent parameters, given by model restrictions.
## Those values should be edited following the 
## analytical expression. MG5 ignores those values 
## but they are important for interfacing the output of MG5
## to external program such as Pythia.
  1 0.000000 # d : 0.0 
  2 0.000000 # u : 0.0 
  3 0.000000 # s : 0.0 
  4 0.000000 # c : 0.0 
  11 0.000000 # e- : 0.0 
  12 0.000000 # ve : 0.0 
  13 0.000000 # mu- : 0.0 
  14 0.000000 # vm : 0.0 
  16 0.000000 # vt : 0.0 
  21 0.000000 # g : 0.0 
  22 0.000000 # a : 0.0 
  1000025 10000000.000000 # n3 : Mneu2 
  1000035 10000000.000000 # n4 : Mneu2 
  1000037 10000000.000000 # x2+ : Mneu2 
  1000021 10000000.000000 # go : Mneu2 
  1000012 10000000.000000 # sve : Mneu2 
  1000016 10000000.000000 # svt : Mneu2 
  1000011 10000000.000000 # el- : Mneu2 
  1000015 10000000.000000 # ta1- : Mneu2 
  2000011 10000000.000000 # er- : Mneu2 
  2000015 10000000.000000 # ta2- : Mneu2 
  1000006 10000000.000000 # t1 : Mneu2 
  2000002 10000000.000000 # ur : Mneu2 
  2000006 10000000.000000 # t2 : Mneu2 
  1000001 10000000.000000 # dl : Mneu2 
  1000005 10000000.000000 # b1 : Mneu2 
  2000001 10000000.000000 # dr : Mneu2 
  2000005 10000000.000000 # b2 : Mneu2 

###################################
## INFORMATION FOR MSD2
###################################
Block msd2 
    1   1 2.736847e+05 # set of param :1*RmD21x1, 1*RmD22x2 
    2   2 2.736847e+05 # MG5 will not use this value use instead 1*mdl_RmD21x1 
    3   3 2.702620e+05 # RmD23x3 

###################################
## INFORMATION FOR MSE2
###################################
Block mse2 
    1   1 1.863063e+04 # set of param :1*RmE21x1, 1*RmE22x2 
    2   2 1.863063e+04 # MG5 will not use this value use instead 1*mdl_RmE21x1 
    3   3 1.796764e+04 # RmE23x3 

###################################
## INFORMATION FOR MSL2
###################################
Block msl2 
    1   1 3.815567e+04 # set of param :1*RmL21x1, 1*RmL22x2 
    2   2 3.815567e+04 # MG5 will not use this value use instead 1*mdl_RmL21x1 
    3   3 3.782868e+04 # RmL23x3 

###################################
## INFORMATION FOR MSOFT
###################################
Block msoft 
    1 1.013965e+02 # RMx1 
    2 1.915042e+02 # RMx2 
    3 5.882630e+02 # RMx3 
   21 3.233749e+04 # mHd2 
   22 -1.288001e+05 # mHu2 

###################################
## INFORMATION FOR MSQ2
###################################
Block msq2 
    1   1 2.998367e+05 # set of param :1*RmQ21x1, 1*RmQ22x2 
    2   2 2.998367e+05 # MG5 will not use this value use instead 1*mdl_RmQ21x1 
    3   3 2.487654e+05 # RmQ23x3 

###################################
## INFORMATION FOR MSU2
###################################
Block msu2 
    1   1 2.803821e+05 # set of param :1*RmU21x1, 1*RmU22x2 
    2   2 2.803821e+05 # MG5 will not use this value use instead 1*mdl_RmU21x1 
    3   3 1.791371e+05 # RmU23x3 

###################################
## INFORMATION FOR NMIX
###################################
Block nmix 
    1   1 0.000000e+00 # RNN1x1 
    1   2 1.000000e+00 # RNN1x2 
    1   3 0.000000e+00 # RNN1x3 
    1   4 0.000000e+00 # RNN1x4 
    2   1 0.000000e+00 # RNN2x1 
    2   2 0.000000e+00 # RNN2x2 
    2   3 7.070000e-01 # set of param :1*RNN2x3, 1*RNN2x4, 1*RNN3x3, 1*RNN3x4 
    2   4 7.070000e-01 # MG5 will not use this value use instead 1*mdl_RNN2x3 
    3   1 0.000000e+00 # RNN3x1 
    3   2 0.000000e+00 # RNN3x2 
    3   3 7.070000e-01 # MG5 will not use this value use instead 1*mdl_RNN2x3 
    3   4 7.070000e-01 # MG5 will not use this value use instead 1*mdl_RNN2x3 
    4   1 1.000000e+00 # RNN4x1 
    4   2 0.000000e+00 # RNN4x2 
    4   3 0.000000e+00 # RNN4x3 
    4   4 0.000000e+00 # RNN4x4 

###################################
## INFORMATION FOR SELMIX
###################################
Block selmix 
    1   1 1.000000e+00 # RRl1x1 
    2   2 1.000000e+00 # RRl2x2 
    3   3 2.824872e-01 # set of param :1*RRl3x3, -1*RRl6x6 
    3   6 9.592711e-01 # set of param :1*RRl3x6, 1*RRl6x3 
    4   4 1.000000e+00 # RRl4x4 
    5   5 1.000000e+00 # RRl5x5 
    6   3 9.592711e-01 # MG5 will not use this value use instead 1*mdl_RRl3x6 
    6   6 -2.824872e-01 # MG5 will not use this value use instead -1*mdl_RRl3x3 

###################################
## INFORMATION FOR SMINPUTS
###################################
Block sminputs 
    1 1.279340e+02 # aEWM1 
    3 1.180000e-01 # aS 

###################################
## INFORMATION FOR SNUMIX
###################################
Block snumix 
    1   1 1.000000e+00 # RRn1x1 
    2   2 1.000000e+00 # RRn2x2 
    3   3 1.000000e+00 # RRn3x3 

###################################
## INFORMATION FOR TD
###################################
Block td 
    3   3 -1.106937e+02 # Rtd3x3 

###################################
## INFORMATION FOR TE
###################################
Block te 
    3   3 -2.540197e+01 # Rte3x3 

###################################
## INFORMATION FOR TU
###################################
Block tu 
    3   3 -4.447525e+02 # Rtu3x3 

###################################
## INFORMATION FOR UMIX
###################################
Block umix 
    1   1 1.000000e+00 # RUU1x1 
    1   2 0.000000e+00 # RUU1x2 
    2   1 0.000000e+00 # RUU2x1 
    2   2 1.000000e+00 # RUU2x2 

###################################
## INFORMATION FOR UPMNS
###################################
Block upmns 
    1   1 1.000000e+00 # RMNS1x1 
    2   2 1.000000e+00 # RMNS2x2 
    3   3 1.000000e+00 # RMNS3x3 

###################################
## INFORMATION FOR USQMIX
###################################
Block usqmix 
    1   1 1.000000e+00 # RRu1x1 
    2   2 1.000000e+00 # RRu2x2 
    3   3 5.536450e-01 # set of param :1*RRu3x3, -1*RRu6x6 
    3   6 8.327528e-01 # set of param :1*RRu3x6, 1*RRu6x3 
    4   4 1.000000e+00 # RRu4x4 
    5   5 1.000000e+00 # RRu5x5 
    6   3 8.327528e-01 # MG5 will not use this value use instead 1*mdl_RRu3x6 
    6   6 -5.536450e-01 # MG5 will not use this value use instead -1*mdl_RRu3x3 

###################################
## INFORMATION FOR VCKM
###################################
Block vckm 
    1   1 1.000000e+00 # RCKM1x1 
    2   2 1.000000e+00 # RCKM2x2 
    3   3 1.000000e+00 # RCKM3x3 

###################################
## INFORMATION FOR VMIX
###################################
Block vmix 
    1   1 1.000000e+00 # RVV1x1 
    1   2 0.000000e+00 # RVV1x2 
    2   1 0.000000e+00 # RVV2x1 
    2   2 1.000000e+00 # RVV2x2 

###################################
## INFORMATION FOR YD
###################################
Block yd 
    3   3 1.388402e-01 # Ryd3x3 

###################################
## INFORMATION FOR YE
###################################
Block ye 
    3   3 1.008908e-01 # Rye3x3 

###################################
## INFORMATION FOR YU
###################################
Block yu 
    3   3 8.928445e-01 # Ryu3x3 

###################################
## INFORMATION FOR DECAY
###################################
DECAY   6 1.561950e+00 # WT 
DECAY  23 2.411433e+00 # WZ 
DECAY  24 2.002822e+00 # WW 
DECAY  25 1.986108e-03 # WH01 
DECAY  35 5.748014e-01 # WH02 
DECAY  36 6.321785e-01 # WA0 
DECAY  37 5.469628e-01 # WH 
DECAY 1000001 5.312788e+00 # Wsd1 
DECAY 1000002 5.477195e+00 # Wsu1 
DECAY 1000003 5.312788e+00 # Wsd2 
DECAY 1000004 5.477195e+00 # Wsu2 
DECAY 1000005 3.736276e+00 # Wsd3 
DECAY 1000006 2.021596e+00 # Wsu3 
DECAY 1000011 2.136822e-01 # Wsl1 
DECAY 1000012 1.498816e-01 # Wsn1 
DECAY 1000013 2.136822e-01 # Wsl2 
DECAY 1000014 1.498816e-01 # Wsn2 
DECAY 1000015 1.483273e-01 # Wsl3 
DECAY 1000016 1.475190e-01 # Wsn3 
DECAY 1000021 5.506754e+00 # Wgo 
DECAY 1000023 2.077700e-02 # Wneu2 
DECAY 1000024 1.704145e-02 # Wch1 
DECAY 1000025 1.915985e+00 # Wneu3 
DECAY 1000035 2.585851e+00 # Wneu4 
DECAY 1000037 2.486895e+00 # Wch2 
DECAY 2000001 2.858123e-01 # Wsd4 
DECAY 2000002 1.152973e+00 # Wsu4 
DECAY 2000003 2.858123e-01 # Wsd5 
DECAY 2000004 1.152973e+00 # Wsu5 
DECAY 2000005 8.015663e-01 # Wsd6 
DECAY 2000006 7.373133e+00 # Wsu6 
DECAY 2000011 2.161216e-01 # Wsl4 
DECAY 2000013 2.161216e-01 # Wsl5 
DECAY 2000015 2.699061e-01 # Wsl6 
## Dependent parameters, given by model restrictions.
## Those values should be edited following the 
## analytical expression. MG5 ignores those values 
## but they are important for interfacing the output of MG5
## to external program such as Pythia.
DECAY  1 0.000000 # d : 0.0 
DECAY  2 0.000000 # u : 0.0 
DECAY  3 0.000000 # s : 0.0 
DECAY  4 0.000000 # c : 0.0 
DECAY  5 0.000000 # b : 0.0 
DECAY  11 0.000000 # e- : 0.0 
DECAY  12 0.000000 # ve : 0.0 
DECAY  13 0.000000 # mu- : 0.0 
DECAY  14 0.000000 # vm : 0.0 
DECAY  15 0.000000 # ta- : 0.0 
DECAY  16 0.000000 # vt : 0.0 
DECAY  21 0.000000 # g : 0.0 
DECAY  22 0.000000 # a : 0.0 
DECAY  1000022 0.000000 # n1 : 0.0 
#===========================================================
# QUANTUM NUMBERS OF NEW STATE(S) (NON SM PDG CODE)
#===========================================================

Block QNUMBERS 1000022  # n1 
        1 0  # 3 times electric charge
        2 2  # number of spin states (2S+1)
        3 1  # colour rep (1: singlet, 3: triplet, 8: octet)
        4 0  # Particle/Antiparticle distinction (0=own anti)
Block QNUMBERS 1000023  # n2 
        1 0  # 3 times electric charge
        2 2  # number of spin states (2S+1)
        3 1  # colour rep (1: singlet, 3: triplet, 8: octet)
        4 0  # Particle/Antiparticle distinction (0=own anti)
Block QNUMBERS 1000025  # n3 
        1 0  # 3 times electric charge
        2 2  # number of spin states (2S+1)
        3 1  # colour rep (1: singlet, 3: triplet, 8: octet)
        4 0  # Particle/Antiparticle distinction (0=own anti)
Block QNUMBERS 1000035  # n4 
        1 0  # 3 times electric charge
        2 2  # number of spin states (2S+1)
        3 1  # colour rep (1: singlet, 3: triplet, 8: octet)
        4 0  # Particle/Antiparticle distinction (0=own anti)
Block QNUMBERS 1000024  # x1+ 
        1 3  # 3 times electric charge
        2 2  # number of spin states (2S+1)
        3 1  # colour rep (1: singlet, 3: triplet, 8: octet)
        4 1  # Particle/Antiparticle distinction (0=own anti)
Block QNUMBERS 1000037  # x2+ 
        1 3  # 3 times electric charge
        2 2  # number of spin states (2S+1)
        3 1  # colour rep (1: singlet, 3: triplet, 8: octet)
        4 1  # Particle/Antiparticle distinction (0=own anti)
Block QNUMBERS 1000021  # go 
        1 0  # 3 times electric charge
        2 2  # number of spin states (2S+1)
        3 8  # colour rep (1: singlet, 3: triplet, 8: octet)
        4 0  # Particle/Antiparticle distinction (0=own anti)
Block QNUMBERS 35  # h2 
        1 0  # 3 times electric charge
        2 1  # number of spin states (2S+1)
        3 1  # colour rep (1: singlet, 3: triplet, 8: octet)
        4 0  # Particle/Antiparticle distinction (0=own anti)
Block QNUMBERS 36  # h3 
        1 0  # 3 times electric charge
        2 1  # number of spin states (2S+1)
        3 1  # colour rep (1: singlet, 3: triplet, 8: octet)
        4 0  # Particle/Antiparticle distinction (0=own anti)
Block QNUMBERS 37  # h+ 
        1 3  # 3 times electric charge
        2 1  # number of spin states (2S+1)
        3 1  # colour rep (1: singlet, 3: triplet, 8: octet)
        4 1  # Particle/Antiparticle distinction (0=own anti)
Block QNUMBERS 1000012  # sve 
        1 0  # 3 times electric charge
        2 1  # number of spin states (2S+1)
        3 1  # colour rep (1: singlet, 3: triplet, 8: octet)
        4 1  # Particle/Antiparticle distinction (0=own anti)
Block QNUMBERS 1000014  # svm 
        1 0  # 3 times electric charge
        2 1  # number of spin states (2S+1)
        3 1  # colour rep (1: singlet, 3: triplet, 8: octet)
        4 1  # Particle/Antiparticle distinction (0=own anti)
Block QNUMBERS 1000016  # svt 
        1 0  # 3 times electric charge
        2 1  # number of spin states (2S+1)
        3 1  # colour rep (1: singlet, 3: triplet, 8: octet)
        4 1  # Particle/Antiparticle distinction (0=own anti)
Block QNUMBERS 1000011  # el- 
        1 -3  # 3 times electric charge
        2 1  # number of spin states (2S+1)
        3 1  # colour rep (1: singlet, 3: triplet, 8: octet)
        4 1  # Particle/Antiparticle distinction (0=own anti)
Block QNUMBERS 1000013  # mul- 
        1 -3  # 3 times electric charge
        2 1  # number of spin states (2S+1)
        3 1  # colour rep (1: singlet, 3: triplet, 8: octet)
        4 1  # Particle/Antiparticle distinction (0=own anti)
Block QNUMBERS 1000015  # ta1- 
        1 -3  # 3 times electric charge
        2 1  # number of spin states (2S+1)
        3 1  # colour rep (1: singlet, 3: triplet, 8: octet)
        4 1  # Particle/Antiparticle distinction (0=own anti)
Block QNUMBERS 2000011  # er- 
        1 -3  # 3 times electric charge
        2 1  # number of spin states (2S+1)
        3 1  # colour rep (1: singlet, 3: triplet, 8: octet)
        4 1  # Particle/Antiparticle distinction (0=own anti)
Block QNUMBERS 2000013  # mur- 
        1 -3  # 3 times electric charge
        2 1  # number of spin states (2S+1)
        3 1  # colour rep (1: singlet, 3: triplet, 8: octet)
        4 1  # Particle/Antiparticle distinction (0=own anti)
Block QNUMBERS 2000015  # ta2- 
        1 -3  # 3 times electric charge
        2 1  # number of spin states (2S+1)
        3 1  # colour rep (1: singlet, 3: triplet, 8: octet)
        4 1  # Particle/Antiparticle distinction (0=own anti)
Block QNUMBERS 1000002  # ul 
        1 2  # 3 times electric charge
        2 1  # number of spin states (2S+1)
        3 3  # colour rep (1: singlet, 3: triplet, 8: octet)
        4 1  # Particle/Antiparticle distinction (0=own anti)
Block QNUMBERS 1000004  # cl 
        1 2  # 3 times electric charge
        2 1  # number of spin states (2S+1)
        3 3  # colour rep (1: singlet, 3: triplet, 8: octet)
        4 1  # Particle/Antiparticle distinction (0=own anti)
Block QNUMBERS 1000006  # t1 
        1 2  # 3 times electric charge
        2 1  # number of spin states (2S+1)
        3 3  # colour rep (1: singlet, 3: triplet, 8: octet)
        4 1  # Particle/Antiparticle distinction (0=own anti)
Block QNUMBERS 2000002  # ur 
        1 2  # 3 times electric charge
        2 1  # number of spin states (2S+1)
        3 3  # colour rep (1: singlet, 3: triplet, 8: octet)
        4 1  # Particle/Antiparticle distinction (0=own anti)
Block QNUMBERS 2000004  # cr 
        1 2  # 3 times electric charge
        2 1  # number of spin states (2S+1)
        3 3  # colour rep (1: singlet, 3: triplet, 8: octet)
        4 1  # Particle/Antiparticle distinction (0=own anti)
Block QNUMBERS 2000006  # t2 
        1 2  # 3 times electric charge
        2 1  # number of spin states (2S+1)
        3 3  # colour rep (1: singlet, 3: triplet, 8: octet)
        4 1  # Particle/Antiparticle distinction (0=own anti)
Block QNUMBERS 1000001  # dl 
        1 -1  # 3 times electric charge
        2 1  # number of spin states (2S+1)
        3 3  # colour rep (1: singlet, 3: triplet, 8: octet)
        4 1  # Particle/Antiparticle distinction (0=own anti)
Block QNUMBERS 1000003  # sl 
        1 -1  # 3 times electric charge
        2 1  # number of spin states (2S+1)
        3 3  # colour rep (1: singlet, 3: triplet, 8: octet)
        4 1  # Particle/Antiparticle distinction (0=own anti)
Block QNUMBERS 1000005  # b1 
        1 -1  # 3 times electric charge
        2 1  # number of spin states (2S+1)
        3 3  # colour rep (1: singlet, 3: triplet, 8: octet)
        4 1  # Particle/Antiparticle distinction (0=own anti)
Block QNUMBERS 2000001  # dr 
        1 -1  # 3 times electric charge
        2 1  # number of spin states (2S+1)
        3 3  # colour rep (1: singlet, 3: triplet, 8: octet)
        4 1  # Particle/Antiparticle distinction (0=own anti)
Block QNUMBERS 2000003  # sr 
        1 -1  # 3 times electric charge
        2 1  # number of spin states (2S+1)
        3 3  # colour rep (1: singlet, 3: triplet, 8: octet)
        4 1  # Particle/Antiparticle distinction (0=own anti)
Block QNUMBERS 2000005  # b2 
        1 -1  # 3 times electric charge
        2 1  # number of spin states (2S+1)
        3 3  # colour rep (1: singlet, 3: triplet, 8: octet)
        4 1  # Particle/Antiparticle distinction (0=own anti)
</slha>
<MGGenerationInfo>
#  Number of Events        :       10000
#  Integrated weight (pb)  :       0.148341890566
</MGGenerationInfo>
</header>
<init>
1000022 1000022 1.000010e+04 1.000010e+04 0 0 247000 247000 -4 1
1.483419e-01 5.704127e-04 1.483419e-01 1
<generator name='MadGraph5_aMC@NLO' version='2.6.5'>please cite 1405.0301 </generator>
</init>
<event>
 6      1 +1.4834189e-01 1.00001200e+04 7.81653100e-03 6.93871800e-02
  1000022 -1    0    0    0    0 +0.0000000000e+00 +0.0000000000e+00 +4.4721471353e+01 1.0000100000e+04 1.0000000000e+04 0.0000e+00 -1.0000e+00
  1000022 -1    0    0    0    0 -0.0000000000e+00 -0.0000000000e+00 -4.4721471353e+01 1.0000100000e+04 1.0000000000e+04 0.0000e+00 -1.0000e+00
      -24  1    1    2    0    0 -6.9255238830e+03 -6.9773748616e+03 +1.4571489161e+03 9.9386264970e+03 7.9829010000e+01 0.0000e+00 1.0000e+00
       24  1    1    2    0    0 +6.7063069262e+03 +6.7575523155e+03 -1.3989617314e+03 9.6230209644e+03 7.9829010000e+01 0.0000e+00 1.0000e+00
       22  1    1    2    0    0 -4.4767076966e+01 -4.1831818203e+01 +5.2396805988e+00 6.1493466702e+01 0.0000000000e+00 0.0000e+00 1.0000e+00
       22  1    1    2    0    0 +2.6398403380e+02 +2.6165436426e+02 -6.3426865287e+01 3.7705907187e+02 0.0000000000e+00 0.0000e+00 -1.0000e+00
</event>
<event>
 6      1 +1.4834189e-01 1.00333400e+04 7.81653100e-03 6.93671600e-02
  1000022 -1    0    0    0    0 +0.0000000000e+00 +0.0000000000e+00 +4.4721471353e+01 1.0000100000e+04 1.0000000000e+04 0.0000e+00 -1.0000e+00
  1000022 -1    0    0    0    0 -0.0000000000e+00 -0.0000000000e+00 -4.4721471353e+01 1.0000100000e+04 1.0000000000e+04 0.0000e+00 -1.0000e+00
      -24  1    1    2    0    0 -8.0597361548e+03 -4.2406345407e+03 -3.8208744070e+03 9.8766280733e+03 7.9829010000e+01 0.0000e+00 1.0000e+00
       24  1    1    2    0    0 +7.6441098290e+03 +3.9663386117e+03 +3.4453210828e+03 9.2758216399e+03 7.9829010000e+01 0.0000e+00 1.0000e+00
       22  1    1    2    0    0 -7.4877988823e+01 -1.1224454597e+02 +7.9710382841e+01 1.5671405949e+02 0.0000000000e+00 0.0000e+00 -1.0000e+00
       22  1    1    2    0    0 +4.9050431468e+02 +3.8654047496e+02 +2.9584294133e+02 6.9103622730e+02 0.0000000000e+00 0.0000e+00 -1.0000e+00
</event>
<event>
 6      1 +1.4834189e-01 1.01045100e+04 7.81653100e-03 6.93245400e-02
  1000022 -1    0    0    0    0 +0.0000000000e+00 +0.0000000000e+00 +4.4721471353e+01 1.0000100000e+04 1.0000000000e+04 0.0000e+00 1.0000e+00
  1000022 -1    0    0    0    0 -0.0000000000e+00 -0.0000000000e+00 -4.4721471353e+01 1.0000100000e+04 1.0000000000e+04 0.0000e+00 1.0000e+00
      -24  1    1    2    0    0 +5.0743401808e+03 -1.4541136034e+03 -3.6941818906e+03 6.4433475115e+03 7.9829010000e+01 0.0000e+00 1.0000e+00
       24  1    1    2    0    0 -7.1403419202e+03 +2.3323322939e+03 +6.4415943206e+03 9.8956943531e+03 7.9829010000e+01 0.0000e+00 1.0000e+00
       22  1    1    2    0    0 +2.1431075570e+03 -9.0933430230e+02 -2.5856627780e+03 3.4792888462e+03 0.0000000000e+00 0.0000e+00 1.0000e+00
       22  1    1    2    0    0 -7.7105817556e+01 +3.1115611809e+01 -1.6174965206e+02 1.8186928916e+02 0.0000000000e+00 0.0000e+00 -1.0000e+00
</event>
<event>
 6      1 +1.4834189e-01 1.01572000e+04 7.81653100e-03 6.92932000e-02
  1000022 -1    0    0    0    0 +0.0000000000e+00 +0.0000000000e+00 +4.4721471353e+01 1.0000100000e+04 1.0000000000e+04 0.0000e+00 1.0000e+00
  1000022 -1    0    0    0    0 -0.0000000000e+00 -0.0000000000e+00 -4.4721471353e+01 1.0000100000e+04 1.0000000000e+04 0.0000e+00 1.0000e+00
      -24  1    1    2    0    0 +2.6886394648e+02 +1.8539768792e+03 +6.5106030243e+02 1.9848854573e+03 7.9829010000e+01 0.0000e+00 1.0000e+00
       24  1    1    2    0    0 -1.2363054840e+01 -1.5408049942e+02 -4.6630430941e+01 1.8011305714e+02 7.9829010000e+01 0.0000e+00 -1.0000e+00
       22  1    1    2    0    0 -3.6678892199e+03 +5.8343719906e+03 +4.3924288572e+03 8.1723154075e+03 0.0000000000e+00 0.0000e+00 1.0000e+00
       22  1    1    2    0    0 +3.4113883283e+03 -7.5342683704e+03 -4.9968587287e+03 9.6628860781e+03 0.0000000000e+00 0.0000e+00 1.0000e+00
</event>
<event>
 6      1 +1.4834189e-01 1.00055900e+04 7.81653100e-03 6.93838800e-02
  1000022 -1    0    0    0    0 +0.0000000000e+00 +0.0000000000e+00 +4.4721471353e+01 1.0000100000e+04 1.0000000000e+04 0.0000e+00 1.0000e+00
  1000022 -1    0    0    0    0 -0.0000000000e+00 -0.0000000000e+00 -4.4721471353e+01 1.0000100000e+04 1.0000000000e+04 0.0000e+00 1.0000e+00
      -24  1    1    2    0    0 +4.2865721469e+03 +4.9771703809e+03 -7.0996820716e+03 9.6725789715e+03 7.9829010000e+01 0.0000e+00 -1.0000e+00
       24  1    1    2    0    0 -4.3837922537e+03 -5.1417959645e+03 +7.3641143060e+03 9.9946111704e+03 7.9829010000e+01 0.0000e+00 -1.0000e+00
       22  1    1    2    0    0 +1.2434726823e+01 +8.3335254088e+01 -9.6992354726e+01 1.2847919629e+02 0.0000000000e+00 0.0000e+00 -1.0000e+00
       22  1    1    2    0    0 +8.4785379977e+01 +8.1290329454e+01 -1.6743987969e+02 2.0453066183e+02 0.0000000000e+00 0.0000e+00 1.0000e+00
</event>
<event>
 6      1 +1.4834189e-01 1.00042900e+04 7.81653100e-03 6.93846600e-02
  1000022 -1    0    0    0    0 +0.0000000000e+00 +0.0000000000e+00 +4.4721471353e+01 1.0000100000e+04 1.0000000000e+04 0.0000e+00 -1.0000e+00
  1000022 -1    0    0    0    0 -0.0000000000e+00 -0.0000000000e+00 -4.4721471353e+01 1.0000100000e+04 1.0000000000e+04 0.0000e+00 -1.0000e+00
      -24  1    1    2    0    0 +8.0607127290e+03 +5.5712739438e+03 +1.1251999818e+03 9.8633985383e+03 7.9829010000e+01 0.0000e+00 -1.0000e+00
       24  1    1    2    0    0 -2.6583380814e+03 -1.6695846306e+03 -4.9096153263e+02 3.1783156060e+03 7.9829010000e+01 0.0000e+00 -1.0000e+00
       22  1    1    2    0    0 -5.5163073653e+03 -3.9678520463e+03 -6.4841314783e+02 6.8259751260e+03 0.0000000000e+00 0.0000e+00 -1.0000e+00
       22  1    1    2    0    0 +1.1393271774e+02 +6.6162733074e+01 +1.4174698678e+01 1.3251072976e+02 0.0000000000e+00 0.0000e+00 1.0000e+00
</event>
<event>
 6      1 +1.4834189e-01 1.14939700e+04 7.81653100e-03 6.85566900e-02
  1000022 -1    0    0    0    0 +0.0000000000e+00 +0.0000000000e+00 +4.4721471353e+01 1.0000100000e+04 1.0000000000e+04 0.0000e+00 1.0000e+00
  1000022 -1    0    0    0    0 -0.0000000000e+00 -0.0000000000e+00 -4.4721471353e+01 1.0000100000e+04 1.0000000000e+04 0.0000e+00 1.0000e+00
      -24  1    1    2    0    0 +6.7858657021e+03 -1.1039409323e+03 +5.0082841098e+03 8.5062295586e+03 7.9829010000e+01 0.0000e+00 1.0000e+00
       24  1    1    2    0    0 -4.5163955315e+03 +4.2958096195e+03 -3.9402963387e+03 7.3745587523e+03 7.9829010000e+01 0.0000e+00 1.0000e+00
       22  1    1    2    0    0 -1.5753747407e+02 -1.2205135501e+01 -7.6804123853e+01 1.7568692185e+02 0.0000000000e+00 0.0000e+00 -1.0000e+00
       22  1    1    2    0    0 -2.1119326965e+03 -3.1796635517e+03 -9.9118364723e+02 3.9437247672e+03 0.0000000000e+00 0.0000e+00 1.0000e+00
</event>
<event>
 6      1 +1.4834189e-01 1.00377800e+04 7.81653100e-03 6.93644900e-02
  1000022 -1    0    0    0    0 +0.0000000000e+00 +0.0000000000e+00 +4.4721471353e+01 1.0000100000e+04 1.0000000000e+04 0.0000e+00 1.0000e+00
  1000022 -1    0    0    0    0 -0.0000000000e+00 -0.0000000000e+00 -4.4721471353e+01 1.0000100000e+04 1.0000000000e+04 0.0000e+00 1.0000e+00
      -24  1    1    2    0    0 +2.5539035724e+03 +5.9719671445e+03 +5.6208735532e+03 8.5899596742e+03 7.9829010000e+01 0.0000e+00 -1.0000e+00
       24  1    1    2    0    0 -2.9633334678e+03 -6.6032584705e+03 -6.4459045510e+03 9.6922869242e+03 7.9829010000e+01 0.0000e+00 -1.0000e+00
       22  1    1    2    0    0 +3.9789383178e+02 +9.7151632764e+02 +8.8401599467e+02 1.3724604749e+03 0.0000000000e+00 0.0000e+00 1.0000e+00
       22  1    1    2    0    0 +1.1536063665e+01 -3.4022500169e+02 -5.8984996807e+01 3.4549292668e+02 0.0000000000e+00 0.0000e+00 -1.0000e+00
</event>
<event>
 6      1 +1.4834189e-01 1.00135100e+04 7.81653100e-03 6.93791000e-02
  1000022 -1    0    0    0    0 +0.0000000000e+00 +0.0000000000e+00 +4.4721471353e+01 1.0000100000e+04 1.0000000000e+04 0.0000e+00 -1.0000e+00
  1000022 -1    0    0    0    0 -0.0000000000e+00 -0.0000000000e+00 -4.4721471353e+01 1.0000100000e+04 1.0000000000e+04 0.0000e+00 -1.0000e+00
      -24  1    1    2    0    0 +2.9260778142e+02 -3.4518184004e+02 -3.0949141592e+02 5.5401031020e+02 7.9829010000e+01 0.0000e+00 1.0000e+00
       24  1    1    2    0    0 -7.3498811764e+03 +4.7315239273e+03 +4.7276974776e+03 9.9380867420e+03 7.9829010000e+01 0.0000e+00 1.0000e+00
       22  1    1    2    0    0 -3.7493662100e+01 +2.1618437986e+01 +2.2107089299e+01 4.8598919287e+01 0.0000000000e+00 0.0000e+00 1.0000e+00
       22  1    1    2    0    0 +7.0947670571e+03 -4.4079605252e+03 -4.4403131510e+03 9.4595040285e+03 0.0000000000e+00 0.0000e+00 1.0000e+00
</event>
<event>
 6      1 +1.4834189e-01 1.00002400e+04 7.81653100e-03 6.93871100e-02
  1000022 -1    0    0    0    0 +0.0000000000e+00 +0.0000000000e+00 +4.4721471353e+01 1.0000100000e+04 1.0000000000e+04 0.0000e+00 -1.0000e+00
  1000022 -1    0    0    0    0 -0.0000000000e+00 -0.0000000000e+00 -4.4721471353e+01 1.0000100000e+04 1.0000000000e+04 0.0000e+00 -1.0000e+00
      -24  1    1    2    0    0 -9.9380220952e+03 +5.2009372431e+02 -6.5184617592e+02 9.9732671054e+03 7.9829010000e+01 0.0000e+00 -1.0000e+00
       24  1    1    2    0    0 +8.9724855262e+03 -4.4560292761e+02 +5.8489827593e+02 9.0029182575e+03 7.9829010000e+01 0.0000e+00 -1.0000e+00
       22  1    1    2    0    0 -2.5717406530e+01 +2.4886375255e+00 -7.7477111304e+00 2.6974160656e+01 0.0000000000e+00 0.0000e+00 -1.0000e+00
       22  1    1    2    0    0 +9.9125397559e+02 -7.6979434226e+01 +7.4695611123e+01 9.9704047648e+02 0.0000000000e+00 0.0000e+00 -1.0000e+00
</event>
<event>
 6      1 +1.4834189e-01 7.38031300e+03 7.81653100e-03 7.12720200e-02
  1000022 -1    0    0    0    0 +0.0000000000e+00 +0.0000000000e+00 +4.4721471353e+01 1.0000100000e+04 1.0000000000e+04 0.0000e+00 1.0000e+00
  1000022 -1    0    0    0    0 -0.0000000000e+00 -0.0000000000e+00 -4.4721471353e+01 1.0000100000e+04 1.0000000000e+04 0.0000e+00 1.0000e+00
      -24  1    1    2    0    0 +4.1850256654e+02 -2.5450060866e+02 -7.0315951781e+02 8.6065146042e+02 7.9829010000e+01 0.0000e+00 0.0000e+00
       24  1    1    2    0    0 -9.9133106163e+02 +4.1750080711e+03 +1.5376284840e+03 4.5589586194e+03 7.9829010000e+01 0.0000e+00 1.0000e+00
       22  1    1    2    0    0 +3.4748933148e+03 -1.8160987472e+03 -6.6670195136e+03 7.7344843011e+03 0.0000000000e+00 0.0000e+00 1.0000e+00
       22  1    1    2    0    0 -2.9020648197e+03 -2.1044087153e+03 +5.8325505474e+03 6.8461056191e+03 0.0000000000e+00 0.0000e+00 1.0000e+00
</event>
<event>
 6      1 +1.4834189e-01 1.00338900e+04 7.81653100e-03 6.93668300e-02
  1000022 -1    0    0    0    0 +0.0000000000e+00 +0.0000000000e+00 +4.4721471353e+01 1.0000100000e+04 1.0000000000e+04 0.0000e+00 1.0000e+00
  1000022 -1    0    0    0    0 -0.0000000000e+00 -0.0000000000e+00 -4.4721471353e+01 1.0000100000e+04 1.0000000000e+04 0.0000e+00 1.0000e+00
      -24  1    1    2    0    0 +4.6929801010e+03 -3.6922520611e+02 -8.0142681577e+03 9.2949048545e+03 7.9829010000e+01 0.0000e+00 1.0000e+00
       24  1    1    2    0    0 -4.7769467907e+03 +2.8691142312e+02 +8.3558585348e+03 9.6295526028e+03 7.9829010000e+01 0.0000e+00 1.0000e+00
       22  1    1    2    0    0 +4.1518967099e+02 +2.9280850921e+02 -4.3893092910e+02 6.7140125595e+02 0.0000000000e+00 0.0000e+00 1.0000e+00
       22  1    1    2    0    0 -3.3122298123e+02 -2.1049472622e+02 +9.7340551986e+01 4.0434128669e+02 0.0000000000e+00 0.0000e+00 -1.0000e+00
</event>
<event>
 6      1 +1.4834189e-01 1.00314600e+04 7.81653100e-03 6.93683000e-02
  1000022 -1    0    0    0    0 +0.0000000000e+00 +0.0000000000e+00 +4.4721471353e+01 1.0000100000e+04 1.0000000000e+04 0.0000e+00 1.0000e+00
  1000022 -1    0    0    0    0 -0.0000000000e+00 -0.0000000000e+00 -4.4721471353e+01 1.0000100000e+04 1.0000000000e+04 0.0000e+00 1.0000e+00
      -24  1    1    2    0    0 +1.9714337303e+02 -2.5957341335e+02 +4.1403005782e+02 5.3295161700e+02 7.9829010000e+01 0.0000e+00 -1.0000e+00
       24  1    1    2    0    0 -4.0985705105e+01 +1.5544597483e+02 -9.6930141341e+01 2.0398873070e+02 7.9829010000e+01 0.0000e+00 0.0000e+00
       22  1    1    2    0    0 +4.0876301877e+03 -7.9318936222e+03 +3.2554453610e+03 9.4985041709e+03 0.0000000000e+00 0.0000e+00 -1.0000e+00
       22  1    1    2    0    0 -4.2437878556e+03 +8.0360210608e+03 -3.5725452775e+03 9.7647554814e+03 0.0000000000e+00 0.0000e+00 -1.0000e+00
</event>
<event>
 6      1 +1.4834189e-01 1.00215800e+04 7.81653100e-03 6.93742400e-02
  1000022 -1    0    0    0    0 +0.0000000000e+00 +0.0000000000e+00 +4.4721471353e+01 1.0000100000e+04 1.0000000000e+04 0.0000e+00 1.0000e+00
  1000022 -1    0    0    0    0 -0.0000000000e+00 -0.0000000000e+00 -4.4721471353e+01 1.0000100000e+04 1.0000000000e+04 0.0000e+00 1.0000e+00
      -24  1    1    2    0    0 -3.0261147294e+03 -4.3697829831e+03 +8.4447632890e+03 9.9786158034e+03 7.9829010000e+01 0.0000e+00 1.0000e+00
       24  1    1    2    0    0 +5.9388913010e+02 +1.2665229349e+03 -2.0474107107e+03 2.4809369062e+03 7.9829010000e+01 0.0000e+00 1.0000e+00
       22  1    1    2    0    0 -3.3466805408e+01 +1.0312835725e+02 -1.8350954817e+02 2.1314605181e+02 0.0000000000e+00 0.0000e+00 -1.0000e+00
       22  1    1    2    0    0 +2.4656924047e+03 +3.0001316909e+03 -6.2138430302e+03 7.3275012385e+03 0.0000000000e+00 0.0000e+00 1.0000e+00
</event>
<event>
 6      1 +1.4834189e-01 1.00377600e+04 7.81653100e-03 6.93645000e-02
  1000022 -1    0    0    0    0 +0.0000000000e+00 +0.0000000000e+00 +4.4721471353e+01 1.0000100000e+04 1.0000000000e+04 0.0000e+00 1.0000e+00
  1000022 -1    0    0    0    0 -0.0000000000e+00 -0.0000000000e+00 -4.4721471353e+01 1.0000100000e+04 1.0000000000e+04 0.0000e+00 1.0000e+00
      -24  1    1    2    0    0 +2.0879743394e+03 -1.3150726122e+03 -4.0837278334e+02 2.5024375754e+03 7.9829010000e+01 0.0000e+00 -1.0000e+00
       24  1    1    2    0    0 -7.1122139361e+03 +2.8246065890e+03 +2.0381741577e+03 7.9197547957e+03 7.9829010000e+01 0.0000e+00 -1.0000e+00
       22  1    1    2    0    0 -1.8503835945e+03 +6.2530447680e+02 +5.9801468076e+02 2.0426812512e+03 0.0000000000e+00 0.0000e+00 1.0000e+00
       22  1    1    2    0    0 +6.8746231912e+03 -2.1348384535e+03 -2.2278160551e+03 7.5353263778e+03 0.0000000000e+00 0.0000e+00 -1.0000e+00
</event>
<event>
 6      1 +1.4834189e-01 1.01297900e+04 7.81653100e-03 6.93094800e-02
  1000022 -1    0    0    0    0 +0.0000000000e+00 +0.0000000000e+00 +4.4721471353e+01 1.0000100000e+04 1.0000000000e+04 0.0000e+00 1.0000e+00
  1000022 -1    0    0    0    0 -0.0000000000e+00 -0.0000000000e+00 -4.4721471353e+01 1.0000100000e+04 1.0000000000e+04 0.0000e+00 1.0000e+00
      -24  1    1    2    0    0 +5.6613983929e+02 +1.5649765110e+02 -6.2399011473e+02 8.6066379414e+02 7.9829010000e+01 0.0000e+00 1.0000e+00
       24  1    1    2    0    0 -1.4073361989e+03 -7.6475578534e+03 +5.7023730250e+03 9.6430890841e+03 7.9829010000e+01 0.0000e+00 1.0000e+00
       22  1    1    2    0    0 -1.3935734711e+02 -1.0042560406e+02 +1.4889923219e+02 2.2732521525e+02 0.0000000000e+00 0.0000e+00 1.0000e+00
       22  1    1    2    0    0 +9.8055370675e+02 +7.5914858063e+03 -5.2272821425e+03 9.2691219065e+03 0.0000000000e+00 0.0000e+00 1.0000e+00
</event>
<event>
 6      1 +1.4834189e-01 1.00410000e+04 7.81653100e-03 6.93625600e-02
  1000022 -1    0    0    0    0 +0.0000000000e+00 +0.0000000000e+00 +4.4721471353e+01 1.0000100000e+04 1.0000000000e+04 0.0000e+00 -1.0000e+00
  1000022 -1    0    0    0    0 -0.0000000000e+00 -0.0000000000e+00 -4.4721471353e+01 1.0000100000e+04 1.0000000000e+04 0.0000e+00 -1.0000e+00
      -24  1    1    2    0    0 -8.3363257165e+03 -2.1426146398e+03 -9.3959033702e+02 8.6587716576e+03 7.9829010000e+01 0.0000e+00 -1.0000e+00
       24  1    1    2    0    0 +5.5796708779e+02 +4.6067937327e+02 -1.2689399511e+02 7.3893674482e+02 7.9829010000e+01 0.0000e+00 -1.0000e+00
       22  1    1    2    0    0 -1.2446773293e+03 -6.3323971699e+01 -3.7132227596e+02 1.3004275497e+03 0.0000000000e+00 0.0000e+00 -1.0000e+00
       22  1    1    2    0    0 +9.0230359580e+03 +1.7452592382e+03 +1.4378066081e+03 9.3020640479e+03 0.0000000000e+00 0.0000e+00 -1.0000e+00
</event>
<event>
 6      1 +1.4834189e-01 1.09248200e+04 7.81653100e-03 6.88572900e-02
  1000022 -1    0    0    0    0 +0.0000000000e+00 +0.0000000000e+00 +4.4721471353e+01 1.0000100000e+04 1.0000000000e+04 0.0000e+00 -1.0000e+00
  1000022 -1    0    0    0    0 -0.0000000000e+00 -0.0000000000e+00 -4.4721471353e+01 1.0000100000e+04 1.0000000000e+04 0.0000e+00 -1.0000e+00
      -24  1    1    2    0    0 -1.6820498747e+03 +2.0065709728e+03 +2.9347578130e+03 3.9338015890e+03 7.9829010000e+01 0.0000e+00 1.0000e+00
       24  1    1    2    0    0 +6.3418780109e+03 -4.4208775143e+03 -4.7531670198e+03 9.0753812091e+03 7.9829010000e+01 0.0000e+00 1.0000e+00
       22  1    1    2    0    0 -4.5885079168e+03 +3.2841056543e+03 +8.8236479625e+02 5.7112452657e+03 0.0000000000e+00 0.0000e+00 1.0000e+00
       22  1    1    2    0    0 -7.1320219435e+01 -8.6979911280e+02 +9.3604441053e+02 1.2797719363e+03 0.0000000000e+00 0.0000e+00 1.0000e+00
</event>
<event>
 6      1 +1.4834189e-01 1.00277700e+04 7.81653100e-03 6.93705200e-02
  1000022 -1    0    0    0    0 +0.0000000000e+00 +0.0000000000e+00 +4.4721471353e+01 1.0000100000e+04 1.0000000000e+04 0.0000e+00 -1.0000e+00
  1000022 -1    0    0    0    0 -0.0000000000e+00 -0.0000000000e+00 -4.4721471353e+01 1.0000100000e+04 1.0000000000e+04 0.0000e+00 -1.0000e+00
      -24  1    1    2    0    0 +1.7536168381e+03 -9.6491354378e+03 +1.1990569469e+03 9.8805413285e+03 7.9829010000e+01 0.0000e+00 -1.0000e+00
       24  1    1    2    0    0 -1.8229640640e+03 +9.7075626447e+03 -1.1532082028e+03 9.9446584813e+03 7.9829010000e+01 0.0000e+00 -1.0000e+00
       22  1    1    2    0    0 +1.4626080151e+01 -9.0372789023e+01 +7.9298093815e+00 9.1891485423e+01 0.0000000000e+00 0.0000e+00 -1.0000e+00
       22  1    1    2    0    0 +5.4721145716e+01 +3.1945582062e+01 -5.3778553437e+01 8.3108704788e+01 0.0000000000e+00 0.0000e+00 -1.0000e+00
</event>
<event>
 6      1 +1.4834189e-01 1.00213400e+04 7.81653100e-03 6.93743800e-02
  1000022 -1    0    0    0    0 +0.0000000000e+00 +0.0000000000e+00 +4.4721471353e+01 1.0000100000e+04 1.0000000000e+04 0.0000e+00 -1.0000e+00
  1000022 -1    0    0    0    0 -0.0000000000e+00 -0.0000000000e+00 -4.4721471353e+01 1.0000100000e+04 1.0000000000e+04 0.0000e+00 -1.0000e+00
      -24  1    1    2    0    0 -3.5799899655e+03 +1.2616115203e+03 -8.4294592484e+03 9.2450066345e+03 7.9829010000e+01 0.0000e+00 1.0000e+00
       24  1    1    2    0    0 +3.4505367839e+03 -8.9576628296e+02 +7.9928848866e+03 8.7522101673e+03 7.9829010000e+01 0.0000e+00 1.0000e+00
       22  1    1    2    0    0 -2.7236357803e+02 +9.7865819714e+01 -6.7437423214e+02 7.3385301136e+02 0.0000000000e+00 0.0000e+00 -1.0000e+00
       22  1    1    2    0    0 +4.0181675962e+02 -4.6371105709e+02 +1.1109485939e+03 1.2691301868e+03 0.0000000000e+00 0.0000e+00 -1.0000e+00
</event>
<event>
 6      1 +1.4834189e-01 1.00624600e+04 7.81653100e-03 6.93496800e-02
  1000022 -1    0    0    0    0 +0.0000000000e+00 +0.0000000000e+00 +4.4721471353e+01 1.0000100000e+04 1.0000000000e+04 0.0000e+00 1.0000e+00
  1000022 -1    0    0    0    0 -0.0000000000e+00 -0.0000000000e+00 -4.4721471353e+01 1.0000100000e+04 1.0000000000e+04 0.0000e+00 1.0000e+00
      -24  1    1    2    0    0 -1.4165452215e+01 +6.2542375401e+02 +5.4037896850e+01 6.3296784851e+02 7.9829010000e+01 0.0000e+00 -1.0000e+00
       24  1    1    2    0    0 -3.0897588163e+03 -5.4557572365e+03 -6.6396457068e+03 9.1325332931e+03 7.9829010000e+01 0.0000e+00 -1.0000e+00
       22  1    1    2    0    0 -1.6331420490e+02 -5.7907149556e+01 -7.8633978953e+02 8.0520496279e+02 0.0000000000e+00 0.0000e+00 -1.0000e+00
       22  1    1    2    0    0 +3.2672384734e+03 +4.8882406320e+03 +7.3719475995e+03 9.4294938956e+03 0.0000000000e+00 0.0000e+00 -1.0000e+00
</event>
<event>
 6      1 +1.4834189e-01 1.00088100e+04 7.81653100e-03 6.93819400e-02
  1000022 -1    0    0    0    0 +0.0000000000e+00 +0.0000000000e+00 +4.4721471353e+01 1.0000100000e+04 1.0000000000e+04 0.0000e+00 -1.0000e+00
  1000022 -1    0    0    0    0 -0.0000000000e+00 -0.0000000000e+00 -4.4721471353e+01 1.0000100000e+04 1.0000000000e+04 0.0000e+00 -1.0000e+00
      -24  1    1    2    0    0 -2.6272799488e+03 -8.7181060572e+03 +3.5830657288e+03 9.7853311565e+03 7.9829010000e+01 0.0000e+00 -1.0000e+00
       24  1    1    2    0    0 +2.6739850361e+03 +8.9137657433e+03 -3.6353835291e+03 9.9913863790e+03 7.9829010000e+01 0.0000e+00 -1.0000e+00
       22  1    1    2    0    0 -5.9888472741e+01 -1.8703719354e+02 +6.0804951333e+01 2.0558886896e+02 0.0000000000e+00 0.0000e+00 1.0000e+00
       22  1    1    2    0    0 +1.3183385422e+01 -8.6224925992e+00 -8.4871510085e+00 1.7893595559e+01 0.0000000000e+00 0.0000e+00 -1.0000e+00
</event>
<event>
 6      1 +1.4834189e-01 1.00022900e+04 7.81653100e-03 6.93858700e-02
  1000022 -1    0    0    0    0 +0.0000000000e+00 +0.0000000000e+00 +4.4721471353e+01 1.0000100000e+04 1.0000000000e+04 0.0000e+00 -1.0000e+00
  1000022 -1    0    0    0    0 -0.0000000000e+00 -0.0000000000e+00 -4.4721471353e+01 1.0000100000e+04 1.0000000000e+04 0.0000e+00 -1.0000e+00
      -24  1    1    2    0    0 +5.7990077636e+02 -7.5591524659e+02 +8.7389887021e+01 9.6005334937e+02 7.9829010000e+01 0.0000e+00 0.0000e+00
       24  1    1    2    0    0 -6.4333836207e+03 +7.5502400897e+03 -9.1668546587e+02 9.9619895171e+03 7.9829010000e+01 0.0000e+00 1.0000e+00
       22  1    1    2    0    0 -2.3932347486e+01 +2.6582433644e+01 -3.3134717980e+00 3.5921610905e+01 0.0000000000e+00 0.0000e+00 -1.0000e+00
       22  1    1    2    0    0 +5.8774151918e+03 -6.8209072768e+03 +8.3260905065e+02 9.0422355227e+03 0.0000000000e+00 0.0000e+00 1.0000e+00
</event>
<event>
 6      1 +1.4834189e-01 1.00041000e+04 7.81653100e-03 6.93847800e-02
  1000022 -1    0    0    0    0 +0.0000000000e+00 +0.0000000000e+00 +4.4721471353e+01 1.0000100000e+04 1.0000000000e+04 0.0000e+00 -1.0000e+00
  1000022 -1    0    0    0    0 -0.0000000000e+00 -0.0000000000e+00 -4.4721471353e+01 1.0000100000e+04 1.0000000000e+04 0.0000e+00 -1.0000e+00
      -24  1    1    2    0    0 +6.3307040645e+03 +1.5548918514e+03 +2.3048775969e+03 6.9147911053e+03 7.9829010000e+01 0.0000e+00 1.0000e+00
       24  1    1    2    0    0 -8.8677709354e+03 -1.9882872215e+03 -3.4913892305e+03 9.7358522415e+03 7.9829010000e+01 0.0000e+00 1.0000e+00
       22  1    1    2    0    0 +2.7842202027e+03 +4.2939992641e+02 +1.2679092281e+03 3.0893138793e+03 0.0000000000e+00 0.0000e+00 1.0000e+00
       22  1    1    2    0    0 -2.4715333186e+02 +3.9954436319e+00 -8.1397594459e+01 2.6024277397e+02 0.0000000000e+00 0.0000e+00 1.0000e+00
</event>
<event>
 6      1 +1.4834189e-01 1.00103400e+04 7.81653100e-03 6.93810100e-02
  1000022 -1    0    0    0    0 +0.0000000000e+00 +0.0000000000e+00 +4.4721471353e+01 1.0000100000e+04 1.0000000000e+04 0.0000e+00 1.0000e+00
  1000022 -1    0    0    0    0 -0.0000000000e+00 -0.0000000000e+00 -4.4721471353e+01 1.0000100000e+04 1.0000000000e+04 0.0000e+00 1.0000e+00
      -24  1    1    2    0    0 +3.9641659257e+03 +3.9260999596e+03 +8.2457605331e+03 9.9562950850e+03 7.9829010000e+01 0.0000e+00 1.0000e+00
       24  1    1    2    0    0 -3.6692807211e+03 -3.7085862640e+03 -8.0404254791e+03 9.5849907482e+03 7.9829010000e+01 0.0000e+00 1.0000e+00
       22  1    1    2    0    0 -1.2828233204e+01 -3.9083961581e+00 +3.0764144854e+01 3.3559972233e+01 0.0000000000e+00 0.0000e+00 1.0000e+00
       22  1    1    2    0    0 -2.8205697144e+02 -2.1360529945e+02 -2.3609919888e+02 4.2535419453e+02 0.0000000000e+00 0.0000e+00 1.0000e+00
</event>
<event>
 6      1 +1.4834189e-01 1.00630100e+04 7.81653100e-03 6.93493500e-02
  1000022 -1    0    0    0    0 +0.0000000000e+00 +0.0000000000e+00 +4.4721471353e+01 1.0000100000e+04 1.0000000000e+04 0.0000e+00 1.0000e+00
  1000022 -1    0    0    0    0 -0.0000000000e+00 -0.0000000000e+00 -4.4721471353e+01 1.0000100000e+04 1.0000000000e+04 0.0000e+00 1.0000e+00
      -24  1    1    2    0    0 +2.2130060727e+03 -6.1184166872e+03 +4.1062105291e+03 7.6941377825e+03 7.9829010000e+01 0.0000e+00 1.0000e+00
       24  1    1    2    0    0 -2.6075342350e+03 +7.6532996881e+03 -5.0196064847e+03 9.5170926671e+03 7.9829010000e+01 0.0000e+00 1.0000e+00
       22  1    1    2    0    0 +7.0727145919e+02 -1.6490050543e+03 +1.3460497591e+03 2.2430560715e+03 0.0000000000e+00 0.0000e+00 1.0000e+00
       22  1    1    2    0    0 -3.1274329681e+02 +1.1412205337e+02 -4.3265380351e+02 5.4591347891e+02 0.0000000000e+00 0.0000e+00 1.0000e+00
</event>
<event>
 6      1 +1.4834189e-01 1.00014500e+04 7.81653100e-03 6.93863800e-02
  1000022 -1    0    0    0    0 +0.0000000000e+00 +0.0000000000e+00 +4.4721471353e+01 1.0000100000e+04 1.0000000000e+04 0.0000e+00 1.0000e+00
  1000022 -1    0    0    0    0 -0.0000000000e+00 -0.0000000000e+00 -4.4721471353e+01 1.0000100000e+04 1.0000000000e+04 0.0000e+00 1.0000e+00
      -24  1    1    2    0    0 -2.6439681062e+02 +2.6332157696e+03 -9.4610755897e+03 9.8245638553e+03 7.9829010000e+01 0.0000e+00 -1.0000e+00
       24  1    1    2    0    0 +2.4703822966e+02 -2.6688570667e+03 +9.5714522364e+03 9.9399646133e+03 7.9829010000e+01 0.0000e+00 -1.0000e+00
       22  1    1    2    0    0 -2.3637540821e+00 +5.0368606185e+01 -1.6672415793e+02 1.7418245795e+02 0.0000000000e+00 0.0000e+00 -1.0000e+00
       22  1    1    2    0    0 +1.9722335038e+01 -1.4727309067e+01 +5.6347511247e+01 6.1489073463e+01 0.0000000000e+00 0.0000e+00 -1.0000e+00
</event>
<event>
 6      1 +1.4834189e-01 1.01258600e+04 7.81653100e-03 6.93118100e-02
  1000022 -1    0    0    0    0 +0.0000000000e+00 +0.0000000000e+00 +4.4721471353e+01 1.0000100000e+04 1.0000000000e+04 0.0000e+00 -1.0000e+00
  1000022 -1    0    0    0    0 -0.0000000000e+00 -0.0000000000e+00 -4.4721471353e+01 1.0000100000e+04 1.0000000000e+04 0.0000e+00 -1.0000e+00
      -24  1    1    2    0    0 +6.7232891603e+03 -4.9132112396e+03 -5.3060323336e+03 9.8743411737e+03 7.9829010000e+01 0.0000e+00 -1.0000e+00
       24  1    1    2    0    0 -4.5011487734e+03 +4.3368697828e+03 +4.2904333129e+03 7.5817524674e+03 7.9829010000e+01 0.0000e+00 -1.0000e+00
       22  1    1    2    0    0 -6.0835618071e+01 +9.7705752332e+01 +8.3537049202e+01 1.4221752724e+02 0.0000000000e+00 0.0000e+00 -1.0000e+00
       22  1    1    2    0    0 -2.1613047688e+03 +4.7863570452e+02 +9.3206197152e+02 2.4018888317e+03 0.0000000000e+00 0.0000e+00 -1.0000e+00
</event>
<event>
 6      1 +1.4834189e-01 1.01249900e+04 7.81653100e-03 6.93123300e-02
  1000022 -1    0    0    0    0 +0.0000000000e+00 +0.0000000000e+00 +4.4721471353e+01 1.0000100000e+04 1.0000000000e+04 0.0000e+00 1.0000e+00
  1000022 -1    0    0    0    0 -0.0000000000e+00 -0.0000000000e+00 -4.4721471353e+01 1.0000100000e+04 1.0000000000e+04 0.0000e+00 1.0000e+00
      -24  1    1    2    0    0 -3.2173129642e+03 -6.2011339663e+02 -1.7299911803e+03 3.7060606429e+03 7.9829010000e+01 0.0000e+00 1.0000e+00
       24  1    1    2    0    0 +9.2476909455e+03 -6.7156511068e+02 +3.3974559715e+03 9.8752147961e+03 7.9829010000e+01 0.0000e+00 1.0000e+00
       22  1    1    2    0    0 -3.9019266959e+01 +6.4028924629e+01 -5.8160698224e+01 9.4894010354e+01 0.0000000000e+00 0.0000e+00 -1.0000e+00
       22  1    1    2    0    0 -5.9913587143e+03 +1.2276495827e+03 -1.6093040930e+03 6.3240305506e+03 0.0000000000e+00 0.0000e+00 1.0000e+00
</event>
<event>
 6      1 +1.4834189e-01 1.01025300e+04 7.81653100e-03 6.93257100e-02
  1000022 -1    0    0    0    0 +0.0000000000e+00 +0.0000000000e+00 +4.4721471353e+01 1.0000100000e+04 1.0000000000e+04 0.0000e+00 -1.0000e+00
  1000022 -1    0    0    0    0 -0.0000000000e+00 -0.0000000000e+00 -4.4721471353e+01 1.0000100000e+04 1.0000000000e+04 0.0000e+00 -1.0000e+00
      -24  1    1    2    0    0 +3.8613136704e+03 -5.3607231206e+03 -7.3020004312e+03 9.8474706704e+03 7.9829010000e+01 0.0000e+00 -1.0000e+00
       24  1    1    2    0    0 -3.4120740753e+03 +5.3598746186e+03 +7.2269781477e+03 9.6232058713e+03 7.9829010000e+01 0.0000e+00 -1.0000e+00
       22  1    1    2    0    0 -4.6482630938e+02 +2.9379848894e+01 +1.1326563480e+02 4.7932846508e+02 0.0000000000e+00 0.0000e+00 -1.0000e+00
       22  1    1    2    0    0 +1.5586714277e+01 -2.8531346888e+01 -3.8243351351e+01 5.0194993174e+01 0.0000000000e+00 0.0000e+00 1.0000e+00
</event>
<event>
 6      1 +1.4834189e-01 1.12553200e+04 7.81653100e-03 6.86805600e-02
  1000022 -1    0    0    0    0 +0.0000000000e+00 +0.0000000000e+00 +4.4721471353e+01 1.0000100000e+04 1.0000000000e+04 0.0000e+00 1.0000e+00
  1000022 -1    0    0    0    0 -0.0000000000e+00 -0.0000000000e+00 -4.4721471353e+01 1.0000100000e+04 1.0000000000e+04 0.0000e+00 1.0000e+00
      -24  1    1    2    0    0 -1.5849827398e+02 +8.7365095945e+01 +6.3273738803e+02 6.6293561972e+02 7.9829010000e+01 0.0000e+00 1.0000e+00
       24  1    1    2    0    0 +2.2509569218e+03 -4.0408387111e+03 -7.4210120934e+03 8.7448829446e+03 7.9829010000e+01 0.0000e+00 1.0000e+00
       22  1    1    2    0    0 +1.2693982026e+03 +4.0880352269e+03 +1.9612945047e+03 4.7085114365e+03 0.0000000000e+00 0.0000e+00 1.0000e+00
       22  1    1    2    0    0 -3.3618568504e+03 -1.3456161183e+02 +4.8269802007e+03 5.8838699992e+03 0.0000000000e+00 0.0000e+00 1.0000e+00
</event>
<event>
 6      1 +1.4834189e-01 1.00175400e+04 7.81653100e-03 6.93766800e-02
  1000022 -1    0    0    0    0 +0.0000000000e+00 +0.0000000000e+00 +4.4721471353e+01 1.0000100000e+04 1.0000000000e+04 0.0000e+00 -1.0000e+00
  1000022 -1    0    0    0    0 -0.0000000000e+00 -0.0000000000e+00 -4.4721471353e+01 1.0000100000e+04 1.0000000000e+04 0.0000e+00 -1.0000e+00
      -24  1    1    2    0    0 -3.5926119590e+03 +6.5396828109e+03 +6.0833453905e+03 9.6274490789e+03 7.9829010000e+01 0.0000e+00 1.0000e+00
       24  1    1    2    0    0 +3.4157716928e+03 -5.6515673410e+03 -5.4819773145e+03 8.5828991381e+03 7.9829010000e+01 0.0000e+00 1.0000e+00
       22  1    1    2    0    0 +1.9109323366e+02 -1.1351384603e+03 -8.5622875019e+02 1.4346371042e+03 0.0000000000e+00 0.0000e+00 -1.0000e+00
       22  1    1    2    0    0 -1.4252967503e+01 +2.4702299038e+02 +2.5486067417e+02 3.5521467889e+02 0.0000000000e+00 0.0000e+00 -1.0000e+00
</event>
<event>
 6      1 +1.4834189e-01 1.00429200e+04 7.81653100e-03 6.93614000e-02
  1000022 -1    0    0    0    0 +0.0000000000e+00 +0.0000000000e+00 +4.4721471353e+01 1.0000100000e+04 1.0000000000e+04 0.0000e+00 -1.0000e+00
  1000022 -1    0    0    0    0 -0.0000000000e+00 -0.0000000000e+00 -4.4721471353e+01 1.0000100000e+04 1.0000000000e+04 0.0000e+00 -1.0000e+00
      -24  1    1    2    0    0 -4.5741117413e+03 -6.4670428759e+03 +3.0594988252e+03 8.4918812705e+03 7.9829010000e+01 0.0000e+00 1.0000e+00
       24  1    1    2    0    0 +5.3551926977e+03 +7.7542091617e+03 -3.2148299938e+03 9.9572763903e+03 7.9829010000e+01 0.0000e+00 1.0000e+00
       22  1    1    2    0    0 -4.3516511989e+02 -8.1081388608e+02 -6.4897524548e+01 9.2249635670e+02 0.0000000000e+00 0.0000e+00 1.0000e+00
       22  1    1    2    0    0 -3.4591583650e+02 -4.7635239978e+02 +2.2022869317e+02 6.2854598242e+02 0.0000000000e+00 0.0000e+00 1.0000e+00
</event>
<event>
 6      1 +1.4834189e-01 9.83937300e+03 7.81653100e-03 6.94851700e-02
  1000022 -1    0    0    0    0 +0.0000000000e+00 +0.0000000000e+00 +4.4721471353e+01 1.0000100000e+04 1.0000000000e+04 0.0000e+00 -1.0000e+00
  1000022 -1    0    0    0    0 -0.0000000000e+00 -0.0000000000e+00 -4.4721471353e+01 1.0000100000e+04 1.0000000000e+04 0.0000e+00 -1.0000e+00
      -24  1    1    2    0    0 +2.8191247638e+02 +5.5574240816e+00 -1.2763295638e+02 3.1963787588e+02 7.9829010000e+01 0.0000e+00 -1.0000e+00
       24  1    1    2    0    0 -5.6767774496e+02 -9.5952382429e+03 -1.4044053356e+03 9.7144007524e+03 7.9829010000e+01 0.0000e+00 1.0000e+00
       22  1    1    2    0    0 -1.5334762223e+01 -1.2379765483e+02 -1.5029515772e+01 1.2564593355e+02 0.0000000000e+00 0.0000e+00 -1.0000e+00
       22  1    1    2    0    0 +3.0110003080e+02 +9.7134784737e+03 +1.5470678078e+03 9.8405154382e+03 0.0000000000e+00 0.0000e+00 1.0000e+00
</event>
<event>
 6      1 +1.4834189e-01 1.01065800e+04 7.81653100e-03 6.93233000e-02
  1000022 -1    0    0    0    0 +0.0000000000e+00 +0.0000000000e+00 +4.4721471353e+01 1.0000100000e+04 1.0000000000e+04 0.0000e+00 -1.0000e+00
  1000022 -1    0    0    0    0 -0.0000000000e+00 -0.0000000000e+00 -4.4721471353e+01 1.0000100000e+04 1.0000000000e+04 0.0000e+00 -1.0000e+00
      -24  1    1    2    0    0 -5.6055206328e+02 +1.1624742432e+02 +4.7069699447e+02 7.4542632818e+02 7.9829010000e+01 0.0000e+00 1.0000e+00
       24  1    1    2    0    0 +2.1610071024e+03 -6.1714461844e+03 -7.0295932179e+03 9.6009506395e+03 7.9829010000e+01 0.0000e+00 -1.0000e+00
       22  1    1    2    0    0 +6.6241586669e+01 -1.9919193720e+02 -2.0393677247e+02 2.9266975042e+02 0.0000000000e+00 0.0000e+00 1.0000e+00
       22  1    1    2    0    0 -1.6666966258e+03 +6.2543906972e+03 +6.7628329959e+03 9.3611532819e+03 0.0000000000e+00 0.0000e+00 -1.0000e+00
</event>
<event>
 6      1 +1.4834189e-01 1.00141400e+04 7.81653100e-03 6.93787300e-02
  1000022 -1    0    0    0    0 +0.0000000000e+00 +0.0000000000e+00 +4.4721471353e+01 1.0000100000e+04 1.0000000000e+04 0.0000e+00 -1.0000e+00
  1000022 -1    0    0    0    0 -0.0000000000e+00 -0.0000000000e+00 -4.4721471353e+01 1.0000100000e+04 1.0000000000e+04 0.0000e+00 -1.0000e+00
      -24  1    1    2    0    0 +9.3309073522e+03 -1.4413139498e+02 +1.2636022079e+03 9.4175192639e+03 7.9829010000e+01 0.0000e+00 -1.0000e+00
       24  1    1    2    0    0 -9.7772839608e+03 +9.1787984429e+01 -1.3820172289e+03 9.8752240975e+03 7.9829010000e+01 0.0000e+00 -1.0000e+00
       22  1    1    2    0    0 -8.8131770997e+01 +7.8169293978e+01 -7.3615181933e+01 1.3891307567e+02 0.0000000000e+00 0.0000e+00 -1.0000e+00
       22  1    1    2    0    0 +5.3450837959e+02 -2.5825883426e+01 +1.9203020300e+02 5.6854356295e+02 0.0000000000e+00 0.0000e+00 1.0000e+00
</event>
<event>
 6      1 +1.4834189e-01 1.00123300e+04 7.81653100e-03 6.93798100e-02
  1000022 -1    0    0    0    0 +0.0000000000e+00 +0.0000000000e+00 +4.4721471353e+01 1.0000100000e+04 1.0000000000e+04 0.0000e+00 1.0000e+00
  1000022 -1    0    0    0    0 -0.0000000000e+00 -0.0000000000e+00 -4.4721471353e+01 1.0000100000e+04 1.0000000000e+04 0.0000e+00 1.0000e+00
      -24  1    1    2    0    0 +6.5467040014e+03 -1.4230825340e+03 -6.6434614557e+03 9.4353828732e+03 7.9829010000e+01 0.0000e+00 1.0000e+00
       24  1    1    2    0    0 -6.9328772492e+03 +1.6616757211e+03 +6.9946531846e+03 9.9878675901e+03 7.9829010000e+01 0.0000e+00 1.0000e+00
       22  1    1    2    0    0 +3.4099760264e+02 -2.2878108636e+02 -3.0424808135e+02 5.1106461968e+02 0.0000000000e+00 0.0000e+00 -1.0000e+00
       22  1    1    2    0    0 +4.5175645179e+01 -9.8121006885e+00 -4.6943647554e+01 6.5884916961e+01 0.0000000000e+00 0.0000e+00 1.0000e+00
</event>
<event>
 6      1 +1.4834189e-01 1.00018600e+04 7.81653100e-03 6.93861300e-02
  1000022 -1    0    0    0    0 +0.0000000000e+00 +0.0000000000e+00 +4.4721471353e+01 1.0000100000e+04 1.0000000000e+04 0.0000e+00 1.0000e+00
  1000022 -1    0    0    0    0 -0.0000000000e+00 -0.0000000000e+00 -4.4721471353e+01 1.0000100000e+04 1.0000000000e+04 0.0000e+00 1.0000e+00
      -24  1    1    2    0    0 -6.0350431015e+03 +6.4308948283e+03 -3.8248126568e+03 9.6132053999e+03 7.9829010000e+01 0.0000e+00 1.0000e+00
       24  1    1    2    0    0 +6.2598055243e+03 -6.7043983915e+03 +3.9107248682e+03 9.9716731124e+03 7.9829010000e+01 0.0000e+00 1.0000e+00
       22  1    1    2    0    0 -2.4407063375e+02 +2.8550581113e+02 -9.9847248850e+01 3.8865603759e+02 0.0000000000e+00 0.0000e+00 -1.0000e+00
       22  1    1    2    0    0 +1.9308210963e+01 -1.2002247872e+01 +1.3935037450e+01 2.6665450180e+01 0.0000000000e+00 0.0000e+00 1.0000e+00
</event>
<event>
 6      1 +1.4834189e-01 1.02672500e+04 7.81653100e-03 6.92283700e-02
  1000022 -1    0    0    0    0 +0.0000000000e+00 +0.0000000000e+00 +4.4721471353e+01 1.0000100000e+04 1.0000000000e+04 0.0000e+00 -1.0000e+00
  1000022 -1    0    0    0    0 -0.0000000000e+00 -0.0000000000e+00 -4.4721471353e+01 1.0000100000e+04 1.0000000000e+04 0.0000e+00 -1.0000e+00
      -24  1    1    2    0    0 +9.5516672683e+03 +1.5551989628e+02 -1.8615831606e+03 9.7329542574e+03 7.9829010000e+01 0.0000e+00 1.0000e+00
       24  1    1    2    0    0 -1.6205267985e+03 -5.2043376795e+02 -7.5557574712e+02 1.8639275179e+03 7.9829010000e+01 0.0000e+00 -1.0000e+00
       22  1    1    2    0    0 -1.4488919430e+02 +8.8527021186e+01 +1.6149261079e+02 2.3432834964e+02 0.0000000000e+00 0.0000e+00 1.0000e+00
       22  1    1    2    0    0 -7.7862512755e+03 +2.7638685049e+02 +2.4556662969e+03 8.1689898750e+03 0.0000000000e+00 0.0000e+00 1.0000e+00
</event>
<event>
 6      1 +1.4834189e-01 1.02766700e+04 7.81653100e-03 6.92228500e-02
  1000022 -1    0    0    0    0 +0.0000000000e+00 +0.0000000000e+00 +4.4721471353e+01 1.0000100000e+04 1.0000000000e+04 0.0000e+00 1.0000e+00
  1000022 -1    0    0    0    0 -0.0000000000e+00 -0.0000000000e+00 -4.4721471353e+01 1.0000100000e+04 1.0000000000e+04 0.0000e+00 1.0000e+00
      -24  1    1    2    0    0 -3.1712965786e+03 +9.1020659333e+03 +1.2790016247e+03 9.7235252903e+03 7.9829010000e+01 0.0000e+00 1.0000e+00
       24  1    1    2    0    0 +2.0590054817e+03 -8.3921935897e+03 -9.3821854367e+02 8.6922404205e+03 7.9829010000e+01 0.0000e+00 1.0000e+00
       22  1    1    2    0    0 +1.0065755705e+03 -2.0780140403e+02 -2.9508847791e+02 1.0693236239e+03 0.0000000000e+00 0.0000e+00 1.0000e+00
       22  1    1    2    0    0 +1.0571552633e+02 -5.0207093956e+02 -4.5694603074e+01 5.1511066540e+02 0.0000000000e+00 0.0000e+00 -1.0000e+00
</event>
<event>
 6      1 +1.4834189e-01 1.00171400e+04 7.81653100e-03 6.93769200e-02
  1000022 -1    0    0    0    0 +0.0000000000e+00 +0.0000000000e+00 +4.4721471353e+01 1.0000100000e+04 1.0000000000e+04 0.0000e+00 -1.0000e+00
  1000022 -1    0    0    0    0 -0.0000000000e+00 -0.0000000000e+00 -4.4721471353e+01 1.0000100000e+04 1.0000000000e+04 0.0000e+00 -1.0000e+00
      -24  1    1    2    0    0 +3.1050623237e+03 +4.7058003814e+02 -8.0571879537e+03 8.6479771045e+03 7.9829010000e+01 0.0000e+00 1.0000e+00
       24  1    1    2    0    0 -2.6393695321e+02 -2.1073576775e+01 +2.9070757363e+02 4.0123605909e+02 7.9829010000e+01 0.0000e+00 1.0000e+00
       22  1    1    2    0    0 -3.3562392820e+03 -5.1370453603e+02 +8.9965170590e+03 9.6159010842e+03 0.0000000000e+00 0.0000e+00 1.0000e+00
       22  1    1    2    0    0 +5.1511391153e+02 +6.4198074666e+01 -1.2300366788e+03 1.3350857523e+03 0.0000000000e+00 0.0000e+00 1.0000e+00
</event>
<event>
 6      1 +1.4834189e-01 1.00006800e+04 7.81653100e-03 6.93868400e-02
  1000022 -1    0    0    0    0 +0.0000000000e+00 +0.0000000000e+00 +4.4721471353e+01 1.0000100000e+04 1.0000000000e+04 0.0000e+00 1.0000e+00
  1000022 -1    0    0    0    0 -0.0000000000e+00 -0.0000000000e+00 -4.4721471353e+01 1.0000100000e+04 1.0000000000e+04 0.0000e+00 1.0000e+00
      -24  1    1    2    0    0 +5.9326445758e+03 +6.0192906498e+03 -5.2572122622e+03 9.9535312845e+03 7.9829010000e+01 0.0000e+00 1.0000e+00
       24  1    1    2    0    0 -5.8895451643e+03 -5.9919632238e+03 +5.2318750191e+03 9.8979419277e+03 7.9829010000e+01 0.0000e+00 1.0000e+00
       22  1    1    2    0    0 +3.0530914953e+01 +2.4650643129e+01 -2.3980330969e+01 4.5987468379e+01 0.0000000000e+00 0.0000e+00 1.0000e+00
       22  1    1    2    0    0 -7.3630326485e+01 -5.1978069108e+01 +4.9317574157e+01 1.0273931948e+02 0.0000000000e+00 0.0000e+00 -1.0000e+00
</event>
<event>
 6      1 +1.4834189e-01 1.00076400e+04 7.81653100e-03 6.93826400e-02
  1000022 -1    0    0    0    0 +0.0000000000e+00 +0.0000000000e+00 +4.4721471353e+01 1.0000100000e+04 1.0000000000e+04 0.0000e+00 -1.0000e+00
  1000022 -1    0    0    0    0 -0.0000000000e+00 -0.0000000000e+00 -4.4721471353e+01 1.0000100000e+04 1.0000000000e+04 0.0000e+00 -1.0000e+00
      -24  1    1    2    0    0 +2.8751657617e+03 +1.6630207935e+03 -1.2581035640e+03 3.5526628837e+03 7.9829010000e+01 0.0000e+00 0.0000e+00
       24  1    1    2    0    0 -7.9112362158e+03 -4.5054956959e+03 +3.4837021416e+03 9.7483179683e+03 7.9829010000e+01 0.0000e+00 1.0000e+00
       22  1    1    2    0    0 -1.4834797406e+02 -1.4432395762e+02 +1.5623754259e+02 2.5931967890e+02 0.0000000000e+00 0.0000e+00 1.0000e+00
       22  1    1    2    0    0 +5.1844184282e+03 +2.9867988601e+03 -2.3818361201e+03 6.4398994691e+03 0.0000000000e+00 0.0000e+00 1.0000e+00
</event>
<event>
 6      1 +1.4834189e-01 8.75087900e+03 7.81653100e-03 7.02025500e-02
  1000022 -1    0    0    0    0 +0.0000000000e+00 +0.0000000000e+00 +4.4721471353e+01 1.0000100000e+04 1.0000000000e+04 0.0000e+00 1.0000e+00
  1000022 -1    0    0    0    0 -0.0000000000e+00 -0.0000000000e+00 -4.4721471353e+01 1.0000100000e+04 1.0000000000e+04 0.0000e+00 1.0000e+00
      -24  1    1    2    0    0 +7.0985784939e+01 -9.5621172395e+00 +3.7545519284e+02 3.9047367186e+02 7.9829010000e+01 0.0000e+00 1.0000e+00
       24  1    1    2    0    0 +7.0056200286e+03 +5.9173331285e+03 -1.2808666965e+03 9.2596185399e+03 7.9829010000e+01 0.0000e+00 1.0000e+00
       22  1    1    2    0    0 -5.6878615146e+03 -5.6096518509e+03 +2.3469670711e+03 8.3263567622e+03 0.0000000000e+00 0.0000e+00 1.0000e+00
       22  1    1    2    0    0 -1.3887442989e+03 -2.9811916034e+02 -1.4415555674e+03 2.0237510261e+03 0.0000000000e+00 0.0000e+00 1.0000e+00
</event>
<event>
 6      1 +1.4834189e-01 1.12494100e+04 7.81653100e-03 6.86836700e-02
  1000022 -1    0    0    0    0 +0.0000000000e+00 +0.0000000000e+00 +4.4721471353e+01 1.0000100000e+04 1.0000000000e+04 0.0000e+00 1.0000e+00
  1000022 -1    0    0    0    0 -0.0000000000e+00 -0.0000000000e+00 -4.4721471353e+01 1.0000100000e+04 1.0000000000e+04 0.0000e+00 1.0000e+00
      -24  1    1    2    0    0 -2.3756934025e+03 +6.1439227309e+03 -4.0380743584e+03 7.7268443016e+03 7.9829010000e+01 0.0000e+00 1.0000e+00
       24  1    1    2    0    0 +7.9395784252e+02 -7.8156914796e+03 +3.5432146588e+03 8.6183609317e+03 7.9829010000e+01 0.0000e+00 1.0000e+00
       22  1    1    2    0    0 -6.2687258271e+02 +6.4035686307e+02 -4.9541976209e+02 1.0239467211e+03 0.0000000000e+00 0.0000e+00 -1.0000e+00
       22  1    1    2    0    0 +2.2086081427e+03 +1.0314118856e+03 +9.9027946174e+02 2.6310480456e+03 0.0000000000e+00 0.0000e+00 1.0000e+00
</event>
<event>
 6      1 +1.4834189e-01 1.00023100e+04 7.81653100e-03 6.93858600e-02
  1000022 -1    0    0    0    0 +0.0000000000e+00 +0.0000000000e+00 +4.4721471353e+01 1.0000100000e+04 1.0000000000e+04 0.0000e+00 -1.0000e+00
  1000022 -1    0    0    0    0 -0.0000000000e+00 -0.0000000000e+00 -4.4721471353e+01 1.0000100000e+04 1.0000000000e+04 0.0000e+00 -1.0000e+00
      -24  1    1    2    0    0 +2.3486898599e+03 -1.0298639776e+03 +1.1628952868e+03 2.8170307043e+03 7.9829010000e+01 0.0000e+00 -1.0000e+00
       24  1    1    2    0    0 -8.3160208678e+03 +3.0034487991e+03 -4.5104201466e+03 9.9260853478e+03 7.9829010000e+01 0.0000e+00 -1.0000e+00
       22  1    1    2    0    0 -7.2771107205e+01 +1.8137534104e+01 +1.3611348331e+01 7.6222522856e+01 0.0000000000e+00 0.0000e+00 -1.0000e+00
       22  1    1    2    0    0 +6.0401021152e+03 -1.9917223556e+03 +3.3339135115e+03 7.1808614250e+03 0.0000000000e+00 0.0000e+00 -1.0000e+00
</event>
<event>
 6      1 +1.4834189e-01 1.00033700e+04 7.81653100e-03 6.93852200e-02
  1000022 -1    0    0    0    0 +0.0000000000e+00 +0.0000000000e+00 +4.4721471353e+01 1.0000100000e+04 1.0000000000e+04 0.0000e+00 -1.0000e+00
  1000022 -1    0    0    0    0 -0.0000000000e+00 -0.0000000000e+00 -4.4721471353e+01 1.0000100000e+04 1.0000000000e+04 0.0000e+00 -1.0000e+00
      -24  1    1    2    0    0 +6.6814244323e+03 -7.1668604838e+03 +7.6153480382e+02 9.8281040678e+03 7.9829010000e+01 0.0000e+00 1.0000e+00
       24  1    1    2    0    0 -6.7927154788e+03 +7.2944230310e+03 -7.6198293306e+02 9.9968285768e+03 7.9829010000e+01 0.0000e+00 1.0000e+00
       22  1    1    2    0    0 +1.0755986591e+02 -1.1376079782e+02 +1.1812507451e+01 1.5700375539e+02 0.0000000000e+00 0.0000e+00 1.0000e+00
       22  1    1    2    0    0 +3.7311806417e+00 -1.3801749424e+01 -1.1364378214e+01 1.8263600092e+01 0.0000000000e+00 0.0000e+00 1.0000e+00
</event>
<event>
 6      1 +1.4834189e-01 1.00230500e+04 7.81653100e-03 6.93733600e-02
  1000022 -1    0    0    0    0 +0.0000000000e+00 +0.0000000000e+00 +4.4721471353e+01 1.0000100000e+04 1.0000000000e+04 0.0000e+00 1.0000e+00
  1000022 -1    0    0    0    0 -0.0000000000e+00 -0.0000000000e+00 -4.4721471353e+01 1.0000100000e+04 1.0000000000e+04 0.0000e+00 1.0000e+00
      -24  1    1    2    0    0 +1.9108492239e+03 +1.7755204360e+02 +9.1263004670e+03 9.3262319491e+03 7.9829010000e+01 0.0000e+00 -1.0000e+00
       24  1    1    2    0    0 -1.5329842275e+01 +1.3093523416e+02 -1.5460689663e+03 1.5537313021e+03 7.9829010000e+01 0.0000e+00 -1.0000e+00
       22  1    1    2    0    0 +1.1853560152e+02 +9.7100605901e+00 +6.3996455722e+02 6.5092212177e+02 0.0000000000e+00 0.0000e+00 1.0000e+00
       22  1    1    2    0    0 -2.0140549831e+03 -3.1819733836e+02 -8.2201960579e+03 8.4693146270e+03 0.0000000000e+00 0.0000e+00 -1.0000e+00
</event>
<event>
 6      1 +1.4834189e-01 1.00152800e+04 7.81653100e-03 6.93780400e-02
  1000022 -1    0    0    0    0 +0.0000000000e+00 +0.0000000000e+00 +4.4721471353e+01 1.0000100000e+04 1.0000000000e+04 0.0000e+00 -1.0000e+00
  1000022 -1    0    0    0    0 -0.0000000000e+00 -0.0000000000e+00 -4.4721471353e+01 1.0000100000e+04 1.0000000000e+04 0.0000e+00 -1.0000e+00
      -24  1    1    2    0    0 +5.9502780856e+03 +4.3878668680e+02 -5.0507757277e+03 7.8176116030e+03 7.9829010000e+01 0.0000e+00 -1.0000e+00
       24  1    1    2    0    0 -7.4831974044e+03 -8.9202243279e+02 +6.0827520622e+03 9.6850499604e+03 7.9829010000e+01 0.0000e+00 -1.0000e+00
       22  1    1    2    0    0 -2.2718471689e+02 -2.4627281624e+01 +1.9416944270e+02 2.9986858966e+02 0.0000000000e+00 0.0000e+00 1.0000e+00
       22  1    1    2    0    0 +1.7601040356e+03 +4.7786302761e+02 -1.2261457773e+03 2.1976698470e+03 0.0000000000e+00 0.0000e+00 -1.0000e+00
</event>
<event>
 6      1 +1.4834189e-01 1.00022200e+04 7.81653100e-03 6.93859200e-02
  1000022 -1    0    0    0    0 +0.0000000000e+00 +0.0000000000e+00 +4.4721471353e+01 1.0000100000e+04 1.0000000000e+04 0.0000e+00 -1.0000e+00
  1000022 -1    0    0    0    0 -0.0000000000e+00 -0.0000000000e+00 -4.4721471353e+01 1.0000100000e+04 1.0000000000e+04 0.0000e+00 -1.0000e+00
      -24  1    1    2    0    0 -7.0453783257e+03 -7.0617867806e+03 -4.6225248419e+02 9.9863025348e+03 7.9829010000e+01 0.0000e+00 1.0000e+00
       24  1    1    2    0    0 +7.0112683449e+03 +7.0072006621e+03 +4.4028016608e+02 9.9226490525e+03 7.9829010000e+01 0.0000e+00 1.0000e+00
       22  1    1    2    0    0 +4.1457007519e+01 +6.3193320511e+01 +2.4873192499e+01 7.9566041341e+01 0.0000000000e+00 0.0000e+00 1.0000e+00
       22  1    1    2    0    0 -7.3470267383e+00 -8.6072020642e+00 -2.9008743922e+00 1.1682371399e+01 0.0000000000e+00 0.0000e+00 1.0000e+00
</event>
<event>
 6      1 +1.4834189e-01 1.00020200e+04 7.81653100e-03 6.93860300e-02
  1000022 -1    0    0    0    0 +0.0000000000e+00 +0.0000000000e+00 +4.4721471353e+01 1.0000100000e+04 1.0000000000e+04 0.0000e+00 -1.0000e+00
  1000022 -1    0    0    0    0 -0.0000000000e+00 -0.0000000000e+00 -4.4721471353e+01 1.0000100000e+04 1.0000000000e+04 0.0000e+00 -1.0000e+00
      -24  1    1    2    0    0 -7.4296326551e+03 -6.1799661858e+03 -2.5623641631e+03 9.9981751446e+03 7.9829010000e+01 0.0000e+00 -1.0000e+00
       24  1    1    2    0    0 +3.8100914080e+03 +3.0777456926e+03 +1.3271362600e+03 5.0751333391e+03 7.9829010000e+01 0.0000e+00 -1.0000e+00
       22  1    1    2    0    0 +3.6099142208e+03 +3.0962944606e+03 +1.2238185883e+03 4.9108300730e+03 0.0000000000e+00 0.0000e+00 -1.0000e+00
       22  1    1    2    0    0 +9.6270262322e+00 +5.9260325703e+00 +1.1409314785e+01 1.6061443271e+01 0.0000000000e+00 0.0000e+00 1.0000e+00
</event>
<event>
 6      1 +1.4834189e-01 1.00642100e+04 7.81653100e-03 6.93486300e-02
  1000022 -1    0    0    0    0 +0.0000000000e+00 +0.0000000000e+00 +4.4721471353e+01 1.0000100000e+04 1.0000000000e+04 0.0000e+00 1.0000e+00
  1000022 -1    0    0    0    0 -0.0000000000e+00 -0.0000000000e+00 -4.4721471353e+01 1.0000100000e+04 1.0000000000e+04 0.0000e+00 1.0000e+00
      -24  1    1    2    0    0 +2.5372368951e+02 +1.0182975575e+02 -7.5957017643e+02 8.1121176861e+02 7.9829010000e+01 0.0000e+00 0.0000e+00
       24  1    1    2    0    0 -2.6028908065e+02 -1.5332514037e+02 +9.7556702720e+01 3.2733619607e+02 7.9829010000e+01 0.0000e+00 -1.0000e+00
       22  1    1    2    0    0 +2.6735427038e+03 +1.7418971019e+03 -8.5486581035e+03 9.1247789821e+03 0.0000000000e+00 0.0000e+00 1.0000e+00
       22  1    1    2    0    0 -2.6669773126e+03 -1.6904017173e+03 +9.2106715772e+03 9.7368730532e+03 0.0000000000e+00 0.0000e+00 1.0000e+00
</event>
<event>
 6      1 +1.4834189e-01 1.00733700e+04 7.81653100e-03 6.93431400e-02
  1000022 -1    0    0    0    0 +0.0000000000e+00 +0.0000000000e+00 +4.4721471353e+01 1.0000100000e+04 1.0000000000e+04 0.0000e+00 1.0000e+00
  1000022 -1    0    0    0    0 -0.0000000000e+00 -0.0000000000e+00 -4.4721471353e+01 1.0000100000e+04 1.0000000000e+04 0.0000e+00 1.0000e+00
      -24  1    1    2    0    0 -1.3699529338e+03 +1.6773130447e+02 +5.2142020797e+02 1.4775508571e+03 7.9829010000e+01 0.0000e+00 1.0000e+00
       24  1    1    2    0    0 +9.0131317513e+03 -4.9672732670e+02 -4.1294509768e+03 9.9268333341e+03 7.9829010000e+01 0.0000e+00 -1.0000e+00
       22  1    1    2    0    0 -7.6145456578e+03 +4.8641949301e+02 +3.5970259694e+03 8.4354315433e+03 0.0000000000e+00 0.0000e+00 -1.0000e+00
       22  1    1    2    0    0 -2.8633159726e+01 -1.5742347078e+02 +1.1004799510e+01 1.6038426544e+02 0.0000000000e+00 0.0000e+00 -1.0000e+00
</event>
<event>
 6      1 +1.4834189e-01 1.00102400e+04 7.81653100e-03 6.93810800e-02
  1000022 -1    0    0    0    0 +0.0000000000e+00 +0.0000000000e+00 +4.4721471353e+01 1.0000100000e+04 1.0000000000e+04 0.0000e+00 -1.0000e+00
  1000022 -1    0    0    0    0 -0.0000000000e+00 -0.0000000000e+00 -4.4721471353e+01 1.0000100000e+04 1.0000000000e+04 0.0000e+00 -1.0000e+00
      -24  1    1    2    0    0 +1.2622186553e+03 -1.5047276227e+03 -4.6077516422e+02 2.0189322859e+03 7.9829010000e+01 0.0000e+00 0.0000e+00
       24  1    1    2    0    0 -6.0645925447e+03 +7.6089854470e+03 +2.2620834922e+03 9.9899617948e+03 7.9829010000e+01 0.0000e+00 -1.0000e+00
       22  1    1    2    0    0 +4.8090169516e+03 -6.0492414349e+03 -1.8046551427e+03 7.9357889440e+03 0.0000000000e+00 0.0000e+00 -1.0000e+00
       22  1    1    2    0    0 -6.6430622576e+00 -5.5016389356e+01 +3.3468146947e+00 5.5516975265e+01 0.0000000000e+00 0.0000e+00 1.0000e+00
</event>
<event>
 6      1 +1.4834189e-01 1.00094400e+04 7.81653100e-03 6.93815600e-02
  1000022 -1    0    0    0    0 +0.0000000000e+00 +0.0000000000e+00 +4.4721471353e+01 1.0000100000e+04 1.0000000000e+04 0.0000e+00 1.0000e+00
  1000022 -1    0    0    0    0 -0.0000000000e+00 -0.0000000000e+00 -4.4721471353e+01 1.0000100000e+04 1.0000000000e+04 0.0000e+00 1.0000e+00
      -24  1    1    2    0    0 -8.8220532079e+02 -1.7509004110e+03 +3.1447124876e+03 3.7066869004e+03 7.9829010000e+01 0.0000e+00 0.0000e+00
       24  1    1    2    0    0 +1.2062676697e+03 +2.3366362163e+03 -4.8531630687e+03 5.5203727175e+03 7.9829010000e+01 0.0000e+00 1.0000e+00
       22  1    1    2    0    0 +1.2071688348e+03 +2.3161488839e+03 -3.6510205834e+03 4.4890704548e+03 0.0000000000e+00 0.0000e+00 -1.0000e+00
       22  1    1    2    0    0 -1.5312311837e+03 -2.9018846892e+03 +5.3594711645e+03 6.2840699272e+03 0.0000000000e+00 0.0000e+00 1.0000e+00
</event>
<event>
 6      1 +1.4834189e-01 1.00575600e+04 7.81653100e-03 6.93526100e-02
  1000022 -1    0    0    0    0 +0.0000000000e+00 +0.0000000000e+00 +4.4721471353e+01 1.0000100000e+04 1.0000000000e+04 0.0000e+00 1.0000e+00
  1000022 -1    0    0    0    0 -0.0000000000e+00 -0.0000000000e+00 -4.4721471353e+01 1.0000100000e+04 1.0000000000e+04 0.0000e+00 1.0000e+00
      -24  1    1    2    0    0 -4.3756971065e+03 +1.3515229163e+03 +8.2888790368e+03 9.4702284935e+03 7.9829010000e+01 0.0000e+00 -1.0000e+00
       24  1    1    2    0    0 +1.9444577483e+03 -1.3860054598e+03 -4.3336479068e+03 4.9486163643e+03 7.9829010000e+01 0.0000e+00 -1.0000e+00
       22  1    1    2    0    0 -2.1812614815e+02 +7.1240898331e+01 +4.1293351683e+02 4.7240699765e+02 0.0000000000e+00 0.0000e+00 1.0000e+00
       22  1    1    2    0    0 +2.6493655063e+03 -3.6758354806e+01 -4.3681646468e+03 5.1089481446e+03 0.0000000000e+00 0.0000e+00 -1.0000e+00
</event>
<event>
 6      1 +1.4834189e-01 1.00058500e+04 7.81653100e-03 6.93837300e-02
  1000022 -1    0    0    0    0 +0.0000000000e+00 +0.0000000000e+00 +4.4721471353e+01 1.0000100000e+04 1.0000000000e+04 0.0000e+00 -1.0000e+00
  1000022 -1    0    0    0    0 -0.0000000000e+00 -0.0000000000e+00 -4.4721471353e+01 1.0000100000e+04 1.0000000000e+04 0.0000e+00 -1.0000e+00
      -24  1    1    2    0    0 -2.3332216230e+03 -5.6957936135e+03 +7.8154554065e+03 9.9485528551e+03 7.9829010000e+01 0.0000e+00 -1.0000e+00
       24  1    1    2    0    0 +2.3683518981e+03 +5.6646930329e+03 -7.8485024550e+03 9.9650991629e+03 7.9829010000e+01 0.0000e+00 -1.0000e+00
       22  1    1    2    0    0 +5.4041681222e+00 +3.8251736030e+01 +1.2959009525e+01 4.0747224080e+01 0.0000000000e+00 0.0000e+00 1.0000e+00
       22  1    1    2    0    0 -4.0534443215e+01 -7.1511554992e+00 +2.0088038933e+01 4.5800757853e+01 0.0000000000e+00 0.0000e+00 1.0000e+00
</event>
<event>
 6      1 +1.4834189e-01 1.00532500e+04 7.81653100e-03 6.93552000e-02
  1000022 -1    0    0    0    0 +0.0000000000e+00 +0.0000000000e+00 +4.4721471353e+01 1.0000100000e+04 1.0000000000e+04 0.0000e+00 1.0000e+00
  1000022 -1    0    0    0    0 -0.0000000000e+00 -0.0000000000e+00 -4.4721471353e+01 1.0000100000e+04 1.0000000000e+04 0.0000e+00 1.0000e+00
      -24  1    1    2    0    0 -1.4475739347e+03 +1.2201652094e+03 +2.6804466854e+01 1.8950895982e+03 7.9829010000e+01 0.0000e+00 -1.0000e+00
       24  1    1    2    0    0 +5.2764295980e+03 -6.5953430400e+03 -2.1586258392e+03 8.7181017029e+03 7.9829010000e+01 0.0000e+00 -1.0000e+00
       22  1    1    2    0    0 -4.6006906356e+03 +6.2840342772e+03 +2.4290140642e+03 8.1581585205e+03 0.0000000000e+00 0.0000e+00 -1.0000e+00
       22  1    1    2    0    0 +7.7183497233e+02 -9.0885644658e+02 -2.9719269192e+02 1.2288501785e+03 0.0000000000e+00 0.0000e+00 1.0000e+00
</event>
<event>
 6      1 +1.4834189e-01 1.00442300e+04 7.81653100e-03 6.93606100e-02
  1000022 -1    0    0    0    0 +0.0000000000e+00 +0.0000000000e+00 +4.4721471353e+01 1.0000100000e+04 1.0000000000e+04 0.0000e+00 -1.0000e+00
  1000022 -1    0    0    0    0 -0.0000000000e+00 -0.0000000000e+00 -4.4721471353e+01 1.0000100000e+04 1.0000000000e+04 0.0000e+00 -1.0000e+00
      -24  1    1    2    0    0 -2.4023656749e+03 +8.1616861945e+03 -3.7803092153e+03 9.3102949904e+03 7.9829010000e+01 0.0000e+00 -1.0000e+00
       24  1    1    2    0    0 +2.8534180314e+02 -7.4181432436e+02 +8.0718295793e+02 1.1356167641e+03 7.9829010000e+01 0.0000e+00 -1.0000e+00
       22  1    1    2    0    0 +2.2965947838e+03 -8.0229095962e+03 +3.1180141422e+03 8.9086159520e+03 0.0000000000e+00 0.0000e+00 -1.0000e+00
       22  1    1    2    0    0 -1.7957091199e+02 +6.0303772606e+02 -1.4488788484e+02 6.4567229355e+02 0.0000000000e+00 0.0000e+00 -1.0000e+00
</event>
<event>
 6      1 +1.4834189e-01 1.00047200e+04 7.81653100e-03 6.93844100e-02
  1000022 -1    0    0    0    0 +0.0000000000e+00 +0.0000000000e+00 +4.4721471353e+01 1.0000100000e+04 1.0000000000e+04 0.0000e+00 -1.0000e+00
  1000022 -1    0    0    0    0 -0.0000000000e+00 -0.0000000000e+00 -4.4721471353e+01 1.0000100000e+04 1.0000000000e+04 0.0000e+00 -1.0000e+00
      -24  1    1    2    0    0 -3.8454646404e+03 +7.6765776352e+03 +1.0746510524e+03 8.6532473699e+03 7.9829010000e+01 0.0000e+00 -1.0000e+00
       24  1    1    2    0    0 +4.4283915293e+03 -8.8199884978e+03 -1.3156282510e+03 9.9569121219e+03 7.9829010000e+01 0.0000e+00 -1.0000e+00
       22  1    1    2    0    0 -6.2671191732e+02 +1.1625391066e+03 +2.3943455768e+02 1.3422346699e+03 0.0000000000e+00 0.0000e+00 1.0000e+00
       22  1    1    2    0    0 +4.3785028477e+01 -1.9128243932e+01 +1.5426408832e+00 4.7805838300e+01 0.0000000000e+00 0.0000e+00 1.0000e+00
</event>
<event>
 6      1 +1.4834189e-01 1.00647400e+04 7.81653100e-03 6.93483100e-02
  1000022 -1    0    0    0    0 +0.0000000000e+00 +0.0000000000e+00 +4.4721471353e+01 1.0000100000e+04 1.0000000000e+04 0.0000e+00 -1.0000e+00
  1000022 -1    0    0    0    0 -0.0000000000e+00 -0.0000000000e+00 -4.4721471353e+01 1.0000100000e+04 1.0000000000e+04 0.0000e+00 -1.0000e+00
      -24  1    1    2    0    0 -1.0960043899e+03 +3.0939468975e+03 -5.3986324358e+02 3.3273950802e+03 7.9829010000e+01 0.0000e+00 -1.0000e+00
       24  1    1    2    0    0 +1.0887856129e+03 -9.7639725043e+03 +1.4786709735e+03 9.9354644428e+03 7.9829010000e+01 0.0000e+00 -1.0000e+00
       22  1    1    2    0    0 +1.4805252083e+01 +6.6519647836e+03 -9.3477444965e+02 6.7173400948e+03 0.0000000000e+00 0.0000e+00 -1.0000e+00
       22  1    1    2    0    0 -7.5864750443e+00 +1.8060823219e+01 -4.0332802295e+00 2.0000382205e+01 0.0000000000e+00 0.0000e+00 -1.0000e+00
</event>
<event>
 6      1 +1.4834189e-01 1.00437500e+04 7.81653100e-03 6.93609000e-02
  1000022 -1    0    0    0    0 +0.0000000000e+00 +0.0000000000e+00 +4.4721471353e+01 1.0000100000e+04 1.0000000000e+04 0.0000e+00 1.0000e+00
  1000022 -1    0    0    0    0 -0.0000000000e+00 -0.0000000000e+00 -4.4721471353e+01 1.0000100000e+04 1.0000000000e+04 0.0000e+00 1.0000e+00
      -24  1    1    2    0    0 -2.4794126139e+03 -3.9805129193e+03 -8.7337828352e+03 9.9134910750e+03 7.9829010000e+01 0.0000e+00 1.0000e+00
       24  1    1    2    0    0 +2.3740030797e+03 +3.9588856743e+03 +8.7908628485e+03 9.9294666874e+03 7.9829010000e+01 0.0000e+00 1.0000e+00
       22  1    1    2    0    0 +1.0106116159e+02 +1.0904551547e+01 -8.1456414658e+01 1.3025903084e+02 0.0000000000e+00 0.0000e+00 -1.0000e+00
       22  1    1    2    0    0 +4.3483726642e+00 +1.0722693409e+01 +2.4376401440e+01 2.6983206739e+01 0.0000000000e+00 0.0000e+00 -1.0000e+00
</event>
<event>
 6      1 +1.4834189e-01 1.00856800e+04 7.81653100e-03 6.93357800e-02
  1000022 -1    0    0    0    0 +0.0000000000e+00 +0.0000000000e+00 +4.4721471353e+01 1.0000100000e+04 1.0000000000e+04 0.0000e+00 -1.0000e+00
  1000022 -1    0    0    0    0 -0.0000000000e+00 -0.0000000000e+00 -4.4721471353e+01 1.0000100000e+04 1.0000000000e+04 0.0000e+00 -1.0000e+00
      -24  1    1    2    0    0 -9.2610546619e+02 +1.6245135297e+03 -6.4461124829e+03 6.7123359836e+03 7.9829010000e+01 0.0000e+00 1.0000e+00
       24  1    1    2    0    0 +1.7480574299e+03 -2.4457979478e+03 +9.4474165160e+03 9.9145188424e+03 7.9829010000e+01 0.0000e+00 1.0000e+00
       22  1    1    2    0    0 -4.7988029732e+02 +6.7623693554e+02 -2.8567546375e+03 2.9746644436e+03 0.0000000000e+00 0.0000e+00 1.0000e+00
       22  1    1    2    0    0 -3.4207166635e+02 +1.4504748254e+02 -1.4454939548e+02 3.9868073047e+02 0.0000000000e+00 0.0000e+00 -1.0000e+00
</event>
<event>
 6      1 +1.4834189e-01 1.00003800e+04 7.81653100e-03 6.93870200e-02
  1000022 -1    0    0    0    0 +0.0000000000e+00 +0.0000000000e+00 +4.4721471353e+01 1.0000100000e+04 1.0000000000e+04 0.0000e+00 -1.0000e+00
  1000022 -1    0    0    0    0 -0.0000000000e+00 -0.0000000000e+00 -4.4721471353e+01 1.0000100000e+04 1.0000000000e+04 0.0000e+00 -1.0000e+00
      -24  1    1    2    0    0 -4.5338128150e+03 +8.4635714926e+03 -1.3052537150e+03 9.6900753859e+03 7.9829010000e+01 0.0000e+00 1.0000e+00
       24  1    1    2    0    0 +4.4468005248e+03 -8.2538150583e+03 +1.2714571085e+03 9.4616316655e+03 7.9829010000e+01 0.0000e+00 1.0000e+00
       22  1    1    2    0    0 -1.4379256082e+02 +2.7066582698e+02 -4.4778024676e+01 3.0974402648e+02 0.0000000000e+00 0.0000e+00 1.0000e+00
       22  1    1    2    0    0 +2.3080485105e+02 -4.8042226129e+02 +7.8574631123e+01 5.3874892210e+02 0.0000000000e+00 0.0000e+00 1.0000e+00
</event>
<event>
 6      1 +1.4834189e-01 1.05553100e+04 7.81653100e-03 6.90624700e-02
  1000022 -1    0    0    0    0 +0.0000000000e+00 +0.0000000000e+00 +4.4721471353e+01 1.0000100000e+04 1.0000000000e+04 0.0000e+00 1.0000e+00
  1000022 -1    0    0    0    0 -0.0000000000e+00 -0.0000000000e+00 -4.4721471353e+01 1.0000100000e+04 1.0000000000e+04 0.0000e+00 1.0000e+00
      -24  1    1    2    0    0 -3.6378043555e+03 +6.1888729350e+03 -5.7659965430e+03 9.2080865298e+03 7.9829010000e+01 0.0000e+00 -1.0000e+00
       24  1    1    2    0    0 +1.4683001267e+03 -4.2811133965e+03 +2.0072514487e+03 4.9516934704e+03 7.9829010000e+01 0.0000e+00 -1.0000e+00
       22  1    1    2    0    0 +7.3682188797e+02 +9.5268687522e+02 +6.0374296577e+02 1.3472283940e+03 0.0000000000e+00 0.0000e+00 -1.0000e+00
       22  1    1    2    0    0 +1.4326823409e+03 -2.8604464138e+03 +3.1550021285e+03 4.4931916059e+03 0.0000000000e+00 0.0000e+00 -1.0000e+00
</event>
<event>
 6      1 +1.4834189e-01 1.00287300e+04 7.81653100e-03 6.93699300e-02
  1000022 -1    0    0    0    0 +0.0000000000e+00 +0.0000000000e+00 +4.4721471353e+01 1.0000100000e+04 1.0000000000e+04 0.0000e+00 1.0000e+00
  1000022 -1    0    0    0    0 -0.0000000000e+00 -0.0000000000e+00 -4.4721471353e+01 1.0000100000e+04 1.0000000000e+04 0.0000e+00 1.0000e+00
      -24  1    1    2    0    0 -7.3441602425e+03 +6.1824022072e+03 -2.6953610773e+03 9.9714658264e+03 7.9829010000e+01 0.0000e+00 -1.0000e+00
       24  1    1    2    0    0 +5.3080727851e+03 -4.5427161449e+03 +1.8629744796e+03 7.2311100978e+03 7.9829010000e+01 0.0000e+00 -1.0000e+00
       22  1    1    2    0    0 +1.2061977162e+03 -6.7602089565e+02 +5.8822940378e+02 1.5026413455e+03 0.0000000000e+00 0.0000e+00 -1.0000e+00
       22  1    1    2    0    0 +8.2988974130e+02 -9.6366516665e+02 +2.4415719394e+02 1.2949827302e+03 0.0000000000e+00 0.0000e+00 -1.0000e+00
</event>
<event>
 6      1 +1.4834189e-01 1.00026800e+04 7.81653100e-03 6.93856300e-02
  1000022 -1    0    0    0    0 +0.0000000000e+00 +0.0000000000e+00 +4.4721471353e+01 1.0000100000e+04 1.0000000000e+04 0.0000e+00 -1.0000e+00
  1000022 -1    0    0    0    0 -0.0000000000e+00 -0.0000000000e+00 -4.4721471353e+01 1.0000100000e+04 1.0000000000e+04 0.0000e+00 -1.0000e+00
      -24  1    1    2    0    0 -4.7374552061e+03 -8.1991696902e+03 -1.4673981808e+03 9.5827707648e+03 7.9829010000e+01 0.0000e+00 -1.0000e+00
       24  1    1    2    0    0 +2.1687375052e+03 +3.4041663468e+03 +6.8014902091e+02 4.0939890382e+03 7.9829010000e+01 0.0000e+00 -1.0000e+00
       22  1    1    2    0    0 +2.7711701736e+03 +5.1567186742e+03 +8.0096838804e+02 5.9086954545e+03 0.0000000000e+00 0.0000e+00 -1.0000e+00
       22  1    1    2    0    0 -2.0245247266e+02 -3.6171533075e+02 -1.3719228122e+01 4.1474474247e+02 0.0000000000e+00 0.0000e+00 1.0000e+00
</event>
<event>
 6      1 +1.4834189e-01 1.00132500e+04 7.81653100e-03 6.93792600e-02
  1000022 -1    0    0    0    0 +0.0000000000e+00 +0.0000000000e+00 +4.4721471353e+01 1.0000100000e+04 1.0000000000e+04 0.0000e+00 -1.0000e+00
  1000022 -1    0    0    0    0 -0.0000000000e+00 -0.0000000000e+00 -4.4721471353e+01 1.0000100000e+04 1.0000000000e+04 0.0000e+00 -1.0000e+00
      -24  1    1    2    0    0 -2.7082395296e+03 -1.6182028920e+03 -9.4008398937e+03 9.9164159517e+03 7.9829010000e+01 0.0000e+00 -1.0000e+00
       24  1    1    2    0    0 +2.7551721972e+03 +1.5279275353e+03 +9.0910924010e+03 9.6218433839e+03 7.9829010000e+01 0.0000e+00 -1.0000e+00
       22  1    1    2    0    0 -2.9132596941e+01 +9.9852988016e+01 +3.7732787011e+02 3.9140215761e+02 0.0000000000e+00 0.0000e+00 -1.0000e+00
       22  1    1    2    0    0 -1.7800070658e+01 -9.5776312762e+00 -6.7580377387e+01 7.0538506818e+01 0.0000000000e+00 0.0000e+00 1.0000e+00
</event>
<event>
 6      1 +1.4834189e-01 1.00036600e+04 7.81653100e-03 6.93850400e-02
  1000022 -1    0    0    0    0 +0.0000000000e+00 +0.0000000000e+00 +4.4721471353e+01 1.0000100000e+04 1.0000000000e+04 0.0000e+00 1.0000e+00
  1000022 -1    0    0    0    0 -0.0000000000e+00 -0.0000000000e+00 -4.4721471353e+01 1.0000100000e+04 1.0000000000e+04 0.0000e+00 1.0000e+00
      -24  1    1    2    0    0 -6.6656087950e+03 +2.4942109053e+03 +7.0194703843e+03 9.9965376904e+03 7.9829010000e+01 0.0000e+00 -1.0000e+00
       24  1    1    2    0    0 +5.7485875094e+03 -2.1806206550e+03 -6.0368287250e+03 8.6169042306e+03 7.9829010000e+01 0.0000e+00 -1.0000e+00
       22  1    1    2    0    0 +4.4950757286e+01 -2.9941764513e+00 -1.4678166876e+01 4.7381264821e+01 0.0000000000e+00 0.0000e+00 1.0000e+00
       22  1    1    2    0    0 +8.7207052834e+02 -3.1059607388e+02 -9.6796349248e+02 1.3393768142e+03 0.0000000000e+00 0.0000e+00 -1.0000e+00
</event>
<event>
 6      1 +1.4834189e-01 1.00001000e+04 7.81653100e-03 6.93871900e-02
  1000022 -1    0    0    0    0 +0.0000000000e+00 +0.0000000000e+00 +4.4721471353e+01 1.0000100000e+04 1.0000000000e+04 0.0000e+00 1.0000e+00
  1000022 -1    0    0    0    0 -0.0000000000e+00 -0.0000000000e+00 -4.4721471353e+01 1.0000100000e+04 1.0000000000e+04 0.0000e+00 1.0000e+00
      -24  1    1    2    0    0 -5.3331568467e+03 -7.6990121557e+03 +2.6816132537e+03 9.7424212821e+03 7.9829010000e+01 0.0000e+00 1.0000e+00
       24  1    1    2    0    0 +5.4284401368e+03 +7.8307901794e+03 -2.7287457501e+03 9.9116932555e+03 7.9829010000e+01 0.0000e+00 1.0000e+00
       22  1    1    2    0    0 +5.0620884691e+01 +6.9182893385e+01 -2.1608148732e+01 8.8406214689e+01 0.0000000000e+00 0.0000e+00 -1.0000e+00
       22  1    1    2    0    0 -1.4590417479e+02 -2.0096091702e+02 +6.8740645150e+01 2.5767924768e+02 0.0000000000e+00 0.0000e+00 -1.0000e+00
</event>
<event>
 6      1 +1.4834189e-01 1.07614700e+04 7.81653100e-03 6.89469700e-02
  1000022 -1    0    0    0    0 +0.0000000000e+00 +0.0000000000e+00 +4.4721471353e+01 1.0000100000e+04 1.0000000000e+04 0.0000e+00 1.0000e+00
  1000022 -1    0    0    0    0 -0.0000000000e+00 -0.0000000000e+00 -4.4721471353e+01 1.0000100000e+04 1.0000000000e+04 0.0000e+00 1.0000e+00
      -24  1    1    2    0    0 +1.2801598361e+03 -8.9897398885e+03 -7.6959019658e+02 9.1133349664e+03 7.9829010000e+01 0.0000e+00 -1.0000e+00
       24  1    1    2    0    0 +1.1357565508e+01 +8.6080594777e+03 +2.0644848982e+03 8.8525300074e+03 7.9829010000e+01 0.0000e+00 -1.0000e+00
       22  1    1    2    0    0 +1.7670147662e+01 -1.2414143876e+02 -9.7878029939e-01 1.2539652685e+02 0.0000000000e+00 0.0000e+00 1.0000e+00
       22  1    1    2    0    0 -1.3091875492e+03 +5.0582184956e+02 -1.2939159214e+03 1.9089384993e+03 0.0000000000e+00 0.0000e+00 1.0000e+00
</event>
<event>
 6      1 +1.4834189e-01 1.00061800e+04 7.81653100e-03 6.93835200e-02
  1000022 -1    0    0    0    0 +0.0000000000e+00 +0.0000000000e+00 +4.4721471353e+01 1.0000100000e+04 1.0000000000e+04 0.0000e+00 1.0000e+00
  1000022 -1    0    0    0    0 -0.0000000000e+00 -0.0000000000e+00 -4.4721471353e+01 1.0000100000e+04 1.0000000000e+04 0.0000e+00 1.0000e+00
      -24  1    1    2    0    0 +3.6040617037e+03 -9.2602894313e+03 -8.4714260646e+01 9.9375937879e+03 7.9829010000e+01 0.0000e+00 1.0000e+00
       24  1    1    2    0    0 -3.4598372409e+03 +8.6927611967e+03 +1.7645946319e+02 9.3579955957e+03 7.9829010000e+01 0.0000e+00 1.0000e+00
       22  1    1    2    0    0 -1.6550367870e+02 +6.1976982354e+02 -9.2962631877e+01 6.4818836210e+02 0.0000000000e+00 0.0000e+00 -1.0000e+00
       22  1    1    2    0    0 +2.1279215907e+01 -5.2241588960e+01 +1.2174293298e+00 5.6422254305e+01 0.0000000000e+00 0.0000e+00 1.0000e+00
</event>
<event>
 6      1 +1.4834189e-01 1.00191000e+04 7.81653100e-03 6.93757400e-02
  1000022 -1    0    0    0    0 +0.0000000000e+00 +0.0000000000e+00 +4.4721471353e+01 1.0000100000e+04 1.0000000000e+04 0.0000e+00 -1.0000e+00
  1000022 -1    0    0    0    0 -0.0000000000e+00 -0.0000000000e+00 -4.4721471353e+01 1.0000100000e+04 1.0000000000e+04 0.0000e+00 -1.0000e+00
      -24  1    1    2    0    0 +2.6152453375e+03 -1.5482959743e+03 -2.8440279793e+03 4.1631233968e+03 7.9829010000e+01 0.0000e+00 1.0000e+00
       24  1    1    2    0    0 -4.0580128562e+01 +8.1959817509e+01 +5.4132765605e+01 1.3291796594e+02 7.9829010000e+01 0.0000e+00 1.0000e+00
       22  1    1    2    0    0 -6.1049610502e+03 +3.5478911518e+03 +6.9194260881e+03 9.8861791627e+03 0.0000000000e+00 0.0000e+00 1.0000e+00
       22  1    1    2    0    0 +3.5302958412e+03 -2.0815549949e+03 -4.1295308744e+03 5.8179794745e+03 0.0000000000e+00 0.0000e+00 1.0000e+00
</event>
<event>
 6      1 +1.4834189e-01 1.00211700e+04 7.81653100e-03 6.93744900e-02
  1000022 -1    0    0    0    0 +0.0000000000e+00 +0.0000000000e+00 +4.4721471353e+01 1.0000100000e+04 1.0000000000e+04 0.0000e+00 1.0000e+00
  1000022 -1    0    0    0    0 -0.0000000000e+00 -0.0000000000e+00 -4.4721471353e+01 1.0000100000e+04 1.0000000000e+04 0.0000e+00 1.0000e+00
      -24  1    1    2    0    0 -2.0073787265e+03 -2.9131087313e+03 -6.9031697371e+03 7.7573124806e+03 7.9829010000e+01 0.0000e+00 1.0000e+00
       24  1    1    2    0    0 +3.7427799946e+02 +3.0363337728e+02 +1.5782718736e+03 1.6521477012e+03 7.9829010000e+01 0.0000e+00 -1.0000e+00
       22  1    1    2    0    0 +2.0956537477e+03 +3.5133458067e+03 +7.3010336288e+03 8.3690175909e+03 0.0000000000e+00 0.0000e+00 1.0000e+00
       22  1    1    2    0    0 -4.6255302064e+02 -9.0387045273e+02 -1.9761357653e+03 2.2217222273e+03 0.0000000000e+00 0.0000e+00 1.0000e+00
</event>
<event>
 6      1 +1.4834189e-01 1.00132700e+04 7.81653100e-03 6.93792500e-02
  1000022 -1    0    0    0    0 +0.0000000000e+00 +0.0000000000e+00 +4.4721471353e+01 1.0000100000e+04 1.0000000000e+04 0.0000e+00 1.0000e+00
  1000022 -1    0    0    0    0 -0.0000000000e+00 -0.0000000000e+00 -4.4721471353e+01 1.0000100000e+04 1.0000000000e+04 0.0000e+00 1.0000e+00
      -24  1    1    2    0    0 +8.3908353212e+01 -3.3307218247e+03 +9.2090982456e+03 9.7936005459e+03 7.9829010000e+01 0.0000e+00 1.0000e+00
       24  1    1    2    0    0 -6.8345008790e+01 +3.3777751220e+03 -9.3977863082e+03 9.9869312595e+03 7.9829010000e+01 0.0000e+00 1.0000e+00
       22  1    1    2    0    0 -1.8662403408e+01 +2.2932432707e+01 +1.6692681649e+01 3.3953311936e+01 0.0000000000e+00 0.0000e+00 1.0000e+00
       22  1    1    2    0    0 +3.0990589855e+00 -6.9985730021e+01 +1.7199538101e+02 1.8571488271e+02 0.0000000000e+00 0.0000e+00 -1.0000e+00
</event>
<event>
 6      1 +1.4834189e-01 1.00709500e+04 7.81653100e-03 6.93445900e-02
  1000022 -1    0    0    0    0 +0.0000000000e+00 +0.0000000000e+00 +4.4721471353e+01 1.0000100000e+04 1.0000000000e+04 0.0000e+00 -1.0000e+00
  1000022 -1    0    0    0    0 -0.0000000000e+00 -0.0000000000e+00 -4.4721471353e+01 1.0000100000e+04 1.0000000000e+04 0.0000e+00 -1.0000e+00
      -24  1    1    2    0    0 +4.3694194420e+03 +2.3049205098e+02 -1.0569834109e+03 4.5020594673e+03 7.9829010000e+01 0.0000e+00 1.0000e+00
       24  1    1    2    0    0 -9.8295580356e+03 -1.0521790780e+03 +9.2535648474e+02 9.9292471659e+03 7.9829010000e+01 0.0000e+00 1.0000e+00
       22  1    1    2    0    0 +5.0528009178e+03 +9.4570383768e+02 +9.3483801959e+01 5.1413900926e+03 0.0000000000e+00 0.0000e+00 1.0000e+00
       22  1    1    2    0    0 +4.0733767581e+02 -1.2401681068e+02 +3.8143124225e+01 4.2750327413e+02 0.0000000000e+00 0.0000e+00 -1.0000e+00
</event>
<event>
 6      1 +1.4834189e-01 1.00427900e+04 7.81653100e-03 6.93614800e-02
  1000022 -1    0    0    0    0 +0.0000000000e+00 +0.0000000000e+00 +4.4721471353e+01 1.0000100000e+04 1.0000000000e+04 0.0000e+00 -1.0000e+00
  1000022 -1    0    0    0    0 -0.0000000000e+00 -0.0000000000e+00 -4.4721471353e+01 1.0000100000e+04 1.0000000000e+04 0.0000e+00 -1.0000e+00
      -24  1    1    2    0    0 +5.5914039421e+03 -3.0925674625e+03 +1.4246252328e+03 6.5470375956e+03 7.9829010000e+01 0.0000e+00 -1.0000e+00
       24  1    1    2    0    0 -4.0553634186e+03 +1.9343040125e+03 -1.3501267430e+01 4.4937800819e+03 7.9829010000e+01 0.0000e+00 -1.0000e+00
       22  1    1    2    0    0 -4.0077158784e+03 +3.5027565462e+03 -1.5685831186e+03 5.5490127936e+03 0.0000000000e+00 0.0000e+00 -1.0000e+00
       22  1    1    2    0    0 +2.4716753549e+03 -2.3444930962e+03 +1.5745915331e+02 3.4103695288e+03 0.0000000000e+00 0.0000e+00 1.0000e+00
</event>
<event>
 6      1 +1.4834189e-01 1.04901000e+04 7.81653100e-03 6.90995500e-02
  1000022 -1    0    0    0    0 +0.0000000000e+00 +0.0000000000e+00 +4.4721471353e+01 1.0000100000e+04 1.0000000000e+04 0.0000e+00 1.0000e+00
  1000022 -1    0    0    0    0 -0.0000000000e+00 -0.0000000000e+00 -4.4721471353e+01 1.0000100000e+04 1.0000000000e+04 0.0000e+00 1.0000e+00
      -24  1    1    2    0    0 -7.3546699950e+03 -1.0073430303e+03 +5.9034864966e+03 9.4849057034e+03 7.9829010000e+01 0.0000e+00 1.0000e+00
       24  1    1    2    0    0 +4.3789606899e+03 +3.6326177434e+02 -7.1918009484e+02 4.4531840878e+03 7.9829010000e+01 0.0000e+00 1.0000e+00
       22  1    1    2    0    0 -1.5610745363e+01 +6.0247847911e-01 +1.9762149971e+01 2.5191286640e+01 0.0000000000e+00 0.0000e+00 1.0000e+00
       22  1    1    2    0    0 +2.9913200504e+03 +6.4347877745e+02 -5.2040685517e+03 6.0369189221e+03 0.0000000000e+00 0.0000e+00 1.0000e+00
</event>
<event>
 6      1 +1.4834189e-01 1.00065400e+04 7.81653100e-03 6.93833000e-02
  1000022 -1    0    0    0    0 +0.0000000000e+00 +0.0000000000e+00 +4.4721471353e+01 1.0000100000e+04 1.0000000000e+04 0.0000e+00 1.0000e+00
  1000022 -1    0    0    0    0 -0.0000000000e+00 -0.0000000000e+00 -4.4721471353e+01 1.0000100000e+04 1.0000000000e+04 0.0000e+00 1.0000e+00
      -24  1    1    2    0    0 +2.1521637485e+03 -2.4652454068e+03 +4.7937771599e+03 5.8048183302e+03 7.9829010000e+01 0.0000e+00 -1.0000e+00
       24  1    1    2    0    0 -1.8814273851e+03 +2.6395477845e+03 -3.9705854356e+03 5.1262952397e+03 7.9829010000e+01 0.0000e+00 -1.0000e+00
       22  1    1    2    0    0 -1.4167410698e+03 +1.9697904647e+03 -4.2343354439e+03 4.8802485987e+03 0.0000000000e+00 0.0000e+00 -1.0000e+00
       22  1    1    2    0    0 +1.1460047065e+03 -2.1440928423e+03 +3.4111437195e+03 4.1888378315e+03 0.0000000000e+00 0.0000e+00 -1.0000e+00
</event>
<event>
 6      1 +1.4834189e-01 1.00247400e+04 7.81653100e-03 6.93723400e-02
  1000022 -1    0    0    0    0 +0.0000000000e+00 +0.0000000000e+00 +4.4721471353e+01 1.0000100000e+04 1.0000000000e+04 0.0000e+00 -1.0000e+00
  1000022 -1    0    0    0    0 -0.0000000000e+00 -0.0000000000e+00 -4.4721471353e+01 1.0000100000e+04 1.0000000000e+04 0.0000e+00 -1.0000e+00
      -24  1    1    2    0    0 +2.8044672039e+03 +3.8836688491e+03 -8.7496056627e+03 9.9754644980e+03 7.9829010000e+01 0.0000e+00 1.0000e+00
       24  1    1    2    0    0 -2.4071013184e+03 -3.6651155842e+03 +7.9757037783e+03 9.1019466287e+03 7.9829010000e+01 0.0000e+00 1.0000e+00
       22  1    1    2    0    0 -1.1662218279e+02 -1.8021710561e+02 +3.9624389134e+02 4.5065303738e+02 0.0000000000e+00 0.0000e+00 -1.0000e+00
       22  1    1    2    0    0 -2.8074370280e+02 -3.8336159278e+01 +3.7765799312e+02 4.7213583590e+02 0.0000000000e+00 0.0000e+00 1.0000e+00
</event>
<event>
 6      1 +1.4834189e-01 1.02425200e+04 7.81653100e-03 6.92428600e-02
  1000022 -1    0    0    0    0 +0.0000000000e+00 +0.0000000000e+00 +4.4721471353e+01 1.0000100000e+04 1.0000000000e+04 0.0000e+00 -1.0000e+00
  1000022 -1    0    0    0    0 -0.0000000000e+00 -0.0000000000e+00 -4.4721471353e+01 1.0000100000e+04 1.0000000000e+04 0.0000e+00 -1.0000e+00
      -24  1    1    2    0    0 +5.9179686441e+03 +6.0759350524e+03 -4.0119023836e+03 9.3830204646e+03 7.9829010000e+01 0.0000e+00 -1.0000e+00
       24  1    1    2    0    0 -2.8808250090e+03 -9.8678885526e+02 +8.8876162036e+02 3.1731963170e+03 7.9829010000e+01 0.0000e+00 -1.0000e+00
       22  1    1    2    0    0 +2.1750059570e+02 +2.4971585887e+02 -1.7522430486e+02 3.7465727847e+02 0.0000000000e+00 0.0000e+00 -1.0000e+00
       22  1    1    2    0    0 -3.2546442307e+03 -5.3388620560e+03 +3.2983650681e+03 7.0693259399e+03 0.0000000000e+00 0.0000e+00 -1.0000e+00
</event>
<event>
 6      1 +1.4834189e-01 1.01598200e+04 7.81653100e-03 6.92916500e-02
  1000022 -1    0    0    0    0 +0.0000000000e+00 +0.0000000000e+00 +4.4721471353e+01 1.0000100000e+04 1.0000000000e+04 0.0000e+00 1.0000e+00
  1000022 -1    0    0    0    0 -0.0000000000e+00 -0.0000000000e+00 -4.4721471353e+01 1.0000100000e+04 1.0000000000e+04 0.0000e+00 1.0000e+00
      -24  1    1    2    0    0 -5.7216470208e+03 +3.0680020997e+03 +7.3323227356e+03 9.7938353511e+03 7.9829010000e+01 0.0000e+00 1.0000e+00
       24  1    1    2    0    0 +6.0050445051e+03 -3.0523519639e+03 -7.0536277799e+03 9.7538428093e+03 7.9829010000e+01 0.0000e+00 1.0000e+00
       22  1    1    2    0    0 -2.5635999344e+02 -3.1197323952e+01 -3.1324578269e+02 4.0597615648e+02 0.0000000000e+00 0.0000e+00 1.0000e+00
       22  1    1    2    0    0 -2.7037490866e+01 +1.5547188129e+01 +3.4550827003e+01 4.6545683126e+01 0.0000000000e+00 0.0000e+00 -1.0000e+00
</event>
<event>
 6      1 +1.4834189e-01 1.00027200e+04 7.81653100e-03 6.93856100e-02
  1000022 -1    0    0    0    0 +0.0000000000e+00 +0.0000000000e+00 +4.4721471353e+01 1.0000100000e+04 1.0000000000e+04 0.0000e+00 -1.0000e+00
  1000022 -1    0    0    0    0 -0.0000000000e+00 -0.0000000000e+00 -4.4721471353e+01 1.0000100000e+04 1.0000000000e+04 0.0000e+00 -1.0000e+00
      -24  1    1    2    0    0 +3.2984212248e+03 +4.4575278656e+03 +4.5680270525e+03 7.1848716810e+03 7.9829010000e+01 0.0000e+00 -1.0000e+00
       24  1    1    2    0    0 -4.3317861511e+03 -5.7394597139e+03 -6.0508130904e+03 9.3981104905e+03 7.9829010000e+01 0.0000e+00 -1.0000e+00
       22  1    1    2    0    0 +1.2805744145e+03 +1.7148259099e+03 +1.8249016075e+03 2.8126081507e+03 0.0000000000e+00 0.0000e+00 -1.0000e+00
       22  1    1    2    0    0 -2.4720948820e+02 -4.3289406159e+02 -3.4211556959e+02 6.0460967787e+02 0.0000000000e+00 0.0000e+00 -1.0000e+00
</event>
<event>
 6      1 +1.4834189e-01 1.01138600e+04 7.81653100e-03 6.93189600e-02
  1000022 -1    0    0    0    0 +0.0000000000e+00 +0.0000000000e+00 +4.4721471353e+01 1.0000100000e+04 1.0000000000e+04 0.0000e+00 1.0000e+00
  1000022 -1    0    0    0    0 -0.0000000000e+00 -0.0000000000e+00 -4.4721471353e+01 1.0000100000e+04 1.0000000000e+04 0.0000e+00 1.0000e+00
      -24  1    1    2    0    0 -1.4112122765e+03 -8.6696389239e+01 -8.3103573575e+02 1.6419590184e+03 7.9829010000e+01 0.0000e+00 1.0000e+00
       24  1    1    2    0    0 +7.9869399594e+03 -3.0866565151e+02 +5.1240507970e+02 8.0097076124e+03 7.9829010000e+01 0.0000e+00 1.0000e+00
       22  1    1    2    0    0 -8.4462894399e+03 +5.0486547195e+02 +4.2236590601e+02 8.4718998700e+03 0.0000000000e+00 0.0000e+00 1.0000e+00
       22  1    1    2    0    0 +1.8705617571e+03 -1.0950343120e+02 -1.0373524996e+02 1.8766334992e+03 0.0000000000e+00 0.0000e+00 1.0000e+00
</event>
<event>
 6      1 +1.4834189e-01 1.00002000e+04 7.81653100e-03 6.93871300e-02
  1000022 -1    0    0    0    0 +0.0000000000e+00 +0.0000000000e+00 +4.4721471353e+01 1.0000100000e+04 1.0000000000e+04 0.0000e+00 -1.0000e+00
  1000022 -1    0    0    0    0 -0.0000000000e+00 -0.0000000000e+00 -4.4721471353e+01 1.0000100000e+04 1.0000000000e+04 0.0000e+00 -1.0000e+00
      -24  1    1    2    0    0 -3.9897174659e+02 -7.9137815102e+03 -4.8966192855e+03 9.3150614246e+03 7.9829010000e+01 0.0000e+00 -1.0000e+00
       24  1    1    2    0    0 +4.3004658155e+02 +8.4605416749e+03 +5.2323271196e+03 9.9573754199e+03 7.9829010000e+01 0.0000e+00 -1.0000e+00
       22  1    1    2    0    0 -3.7605690829e+01 -5.8223287278e+02 -3.5879300254e+02 6.8493921248e+02 0.0000000000e+00 0.0000e+00 1.0000e+00
       22  1    1    2    0    0 +6.5308558679e+00 +3.5472708107e+01 +2.3085168427e+01 4.2823943071e+01 0.0000000000e+00 0.0000e+00 1.0000e+00
</event>
<event>
 6      1 +1.4834189e-01 8.86300200e+03 7.81653100e-03 7.01239200e-02
  1000022 -1    0    0    0    0 +0.0000000000e+00 +0.0000000000e+00 +4.4721471353e+01 1.0000100000e+04 1.0000000000e+04 0.0000e+00 1.0000e+00
  1000022 -1    0    0    0    0 -0.0000000000e+00 -0.0000000000e+00 -4.4721471353e+01 1.0000100000e+04 1.0000000000e+04 0.0000e+00 1.0000e+00
      -24  1    1    2    0    0 -4.8700361188e+02 -2.0016737872e+03 +2.4391899334e+02 2.0759912366e+03 7.9829010000e+01 0.0000e+00 1.0000e+00
       24  1    1    2    0    0 +4.5878632700e+03 +2.5446231777e+03 +7.4294889212e+03 9.0954535237e+03 7.9829010000e+01 0.0000e+00 -1.0000e+00
       22  1    1    2    0    0 -4.1088166946e+03 -4.8883038402e+02 -7.7186361863e+03 8.7577779345e+03 0.0000000000e+00 0.0000e+00 -1.0000e+00
       22  1    1    2    0    0 +7.9570364098e+00 -5.4119006468e+01 +4.5228271713e+01 7.0977305187e+01 0.0000000000e+00 0.0000e+00 -1.0000e+00
</event>
<event>
 6      1 +1.4834189e-01 1.01319500e+04 7.81653100e-03 6.93081900e-02
  1000022 -1    0    0    0    0 +0.0000000000e+00 +0.0000000000e+00 +4.4721471353e+01 1.0000100000e+04 1.0000000000e+04 0.0000e+00 1.0000e+00
  1000022 -1    0    0    0    0 -0.0000000000e+00 -0.0000000000e+00 -4.4721471353e+01 1.0000100000e+04 1.0000000000e+04 0.0000e+00 1.0000e+00
      -24  1    1    2    0    0 -6.8478784885e+03 +3.2462384622e+02 +1.5419856840e+03 7.0272976993e+03 7.9829010000e+01 0.0000e+00 -1.0000e+00
       24  1    1    2    0    0 +9.7680701770e+03 -1.7392176272e+02 -1.3894243235e+03 9.8682478882e+03 7.9829010000e+01 0.0000e+00 -1.0000e+00
       22  1    1    2    0    0 -4.6402490070e+01 +1.9029863686e+02 +5.4474508651e+01 2.0330822503e+02 0.0000000000e+00 0.0000e+00 -1.0000e+00
       22  1    1    2    0    0 -2.8737891984e+03 -3.4100072035e+02 -2.0703586919e+02 2.9013461874e+03 0.0000000000e+00 0.0000e+00 1.0000e+00
</event>
<event>
 6      1 +1.4834189e-01 1.04633300e+04 7.81653100e-03 6.91148600e-02
  1000022 -1    0    0    0    0 +0.0000000000e+00 +0.0000000000e+00 +4.4721471353e+01 1.0000100000e+04 1.0000000000e+04 0.0000e+00 -1.0000e+00
  1000022 -1    0    0    0    0 -0.0000000000e+00 -0.0000000000e+00 -4.4721471353e+01 1.0000100000e+04 1.0000000000e+04 0.0000e+00 -1.0000e+00
      -24  1    1    2    0    0 -4.7113714551e+03 +1.2447896013e+03 +4.3250115114e+03 6.5160278839e+03 7.9829010000e+01 0.0000e+00 1.0000e+00
       24  1    1    2    0    0 +6.0018434641e+03 -2.8638571323e+03 -6.1029853620e+03 9.0264392560e+03 7.9829010000e+01 0.0000e+00 1.0000e+00
       22  1    1    2    0    0 +9.5525410131e+02 +1.0607988002e+03 -1.6382053115e+02 1.4368860981e+03 0.0000000000e+00 0.0000e+00 -1.0000e+00
       22  1    1    2    0    0 -2.2457261103e+03 +5.5826873082e+02 +1.9417943817e+03 3.0208467620e+03 0.0000000000e+00 0.0000e+00 1.0000e+00
</event>
<event>
 6      1 +1.4834189e-01 1.00663100e+04 7.81653100e-03 6.93473700e-02
  1000022 -1    0    0    0    0 +0.0000000000e+00 +0.0000000000e+00 +4.4721471353e+01 1.0000100000e+04 1.0000000000e+04 0.0000e+00 1.0000e+00
  1000022 -1    0    0    0    0 -0.0000000000e+00 -0.0000000000e+00 -4.4721471353e+01 1.0000100000e+04 1.0000000000e+04 0.0000e+00 1.0000e+00
      -24  1    1    2    0    0 -1.1964764058e+03 -7.0645459211e+03 +4.6168736017e+03 8.5241574003e+03 7.9829010000e+01 0.0000e+00 1.0000e+00
       24  1    1    2    0    0 -3.2196403688e+02 +7.0583608703e+02 -2.9864022408e+02 8.3511919932e+02 7.9829010000e+01 0.0000e+00 -1.0000e+00
       22  1    1    2    0    0 +1.6787355514e+03 +7.6083423122e+03 -4.9507437077e+03 9.2311910960e+03 0.0000000000e+00 0.0000e+00 1.0000e+00
       22  1    1    2    0    0 -1.6029510869e+02 -1.2496324781e+03 +6.3251033015e+02 1.4097323044e+03 0.0000000000e+00 0.0000e+00 -1.0000e+00
</event>
<event>
 6      1 +1.4834189e-01 1.00008400e+04 7.81653100e-03 6.93867400e-02
  1000022 -1    0    0    0    0 +0.0000000000e+00 +0.0000000000e+00 +4.4721471353e+01 1.0000100000e+04 1.0000000000e+04 0.0000e+00 1.0000e+00
  1000022 -1    0    0    0    0 -0.0000000000e+00 -0.0000000000e+00 -4.4721471353e+01 1.0000100000e+04 1.0000000000e+04 0.0000e+00 1.0000e+00
      -24  1    1    2    0    0 -2.1904005493e+03 +6.6137889117e+02 +1.4493805209e+03 2.7096776873e+03 7.9829010000e+01 0.0000e+00 -1.0000e+00
       24  1    1    2    0    0 +8.0489379874e+03 -2.4476595955e+03 -5.1096120438e+03 9.8433199750e+03 7.9829010000e+01 0.0000e+00 1.0000e+00
       22  1    1    2    0    0 -5.9874713595e+03 +1.8273907527e+03 +3.7379054004e+03 7.2911663694e+03 0.0000000000e+00 0.0000e+00 1.0000e+00
       22  1    1    2    0    0 +1.2893392142e+02 -4.1110048329e+01 -7.7673877466e+01 1.5603596831e+02 0.0000000000e+00 0.0000e+00 1.0000e+00
</event>
<event>
 6      1 +1.4834189e-01 6.70556700e+03 7.81653100e-03 7.18886500e-02
  1000022 -1    0    0    0    0 +0.0000000000e+00 +0.0000000000e+00 +4.4721471353e+01 1.0000100000e+04 1.0000000000e+04 0.0000e+00 1.0000e+00
  1000022 -1    0    0    0    0 -0.0000000000e+00 -0.0000000000e+00 -4.4721471353e+01 1.0000100000e+04 1.0000000000e+04 0.0000e+00 1.0000e+00
      -24  1    1    2    0    0 +8.7484470021e+03 -2.7184250640e+03 +8.0941470459e+02 9.1971019681e+03 7.9829010000e+01 0.0000e+00 1.0000e+00
       24  1    1    2    0    0 -3.5718199635e+02 +3.5628226708e+02 -7.1840322520e+01 5.1580009221e+02 7.9829010000e+01 0.0000e+00 1.0000e+00
       22  1    1    2    0    0 -3.2611023468e+03 +3.5350139508e+03 -1.3340570662e+03 4.9910740732e+03 0.0000000000e+00 0.0000e+00 1.0000e+00
       22  1    1    2    0    0 -5.1301626590e+03 -1.1728711538e+03 +5.9648268416e+02 5.2962238664e+03 0.0000000000e+00 0.0000e+00 1.0000e+00
</event>
<event>
 6      1 +1.4834189e-01 9.85841900e+03 7.81653100e-03 6.94734700e-02
  1000022 -1    0    0    0    0 +0.0000000000e+00 +0.0000000000e+00 +4.4721471353e+01 1.0000100000e+04 1.0000000000e+04 0.0000e+00 1.0000e+00
  1000022 -1    0    0    0    0 -0.0000000000e+00 -0.0000000000e+00 -4.4721471353e+01 1.0000100000e+04 1.0000000000e+04 0.0000e+00 1.0000e+00
      -24  1    1    2    0    0 +1.5467427414e+02 +1.3078352479e+02 +1.7963085748e+02 2.8225587192e+02 7.9829010000e+01 0.0000e+00 -1.0000e+00
       24  1    1    2    0    0 +6.1863532545e+03 -6.9219693868e+03 -9.3223511630e+01 9.2843788201e+03 7.9829010000e+01 0.0000e+00 1.0000e+00
       22  1    1    2    0    0 +3.8719458082e+02 -4.1930512735e+02 -2.5972585188e+01 5.7132390850e+02 0.0000000000e+00 0.0000e+00 1.0000e+00
       22  1    1    2    0    0 -6.7282221095e+03 +7.2104909893e+03 -6.0434760662e+01 9.8622413995e+03 0.0000000000e+00 0.0000e+00 1.0000e+00
</event>
<event>
 6      1 +1.4834189e-01 1.00015900e+04 7.81653100e-03 6.93862900e-02
  1000022 -1    0    0    0    0 +0.0000000000e+00 +0.0000000000e+00 +4.4721471353e+01 1.0000100000e+04 1.0000000000e+04 0.0000e+00 1.0000e+00
  1000022 -1    0    0    0    0 -0.0000000000e+00 -0.0000000000e+00 -4.4721471353e+01 1.0000100000e+04 1.0000000000e+04 0.0000e+00 1.0000e+00
      -24  1    1    2    0    0 -8.1164656193e+03 -5.7942402027e+03 -5.4895487696e+02 9.9878905583e+03 7.9829010000e+01 0.0000e+00 1.0000e+00
       24  1    1    2    0    0 +8.0999039893e+03 +5.7915159049e+03 +5.4361107345e+02 9.9725616961e+03 7.9829010000e+01 0.0000e+00 1.0000e+00
       22  1    1    2    0    0 +2.0820651899e+01 +1.5443164789e+01 +2.5598821143e+00 2.6048874844e+01 0.0000000000e+00 0.0000e+00 -1.0000e+00
       22  1    1    2    0    0 -4.2590218930e+00 -1.2718866928e+01 +2.7839213978e+00 1.3698870820e+01 0.0000000000e+00 0.0000e+00 1.0000e+00
</event>
<event>
 6      1 +1.4834189e-01 1.01767800e+04 7.81653100e-03 6.92816100e-02
  1000022 -1    0    0    0    0 +0.0000000000e+00 +0.0000000000e+00 +4.4721471353e+01 1.0000100000e+04 1.0000000000e+04 0.0000e+00 1.0000e+00
  1000022 -1    0    0    0    0 -0.0000000000e+00 -0.0000000000e+00 -4.4721471353e+01 1.0000100000e+04 1.0000000000e+04 0.0000e+00 1.0000e+00
      -24  1    1    2    0    0 -8.1695111083e+03 -5.3208274490e+03 -7.9245509986e+02 9.7819463424e+03 7.9829010000e+01 0.0000e+00 -1.0000e+00
       24  1    1    2    0    0 +5.5016139782e+03 +4.4952545555e+03 -4.3120091990e+02 7.1181020496e+03 7.9829010000e+01 0.0000e+00 -1.0000e+00
       22  1    1    2    0    0 +2.2352720948e+00 -4.1412850219e+01 -3.0867624504e-01 4.1474279808e+01 0.0000000000e+00 0.0000e+00 1.0000e+00
       22  1    1    2    0    0 +2.6656618580e+03 +8.6698574373e+02 +1.2239646960e+03 3.0586773282e+03 0.0000000000e+00 0.0000e+00 1.0000e+00
</event>
<event>
 6      1 +1.4834189e-01 6.06491600e+03 7.81653100e-03 7.25461800e-02
  1000022 -1    0    0    0    0 +0.0000000000e+00 +0.0000000000e+00 +4.4721471353e+01 1.0000100000e+04 1.0000000000e+04 0.0000e+00 -1.0000e+00
  1000022 -1    0    0    0    0 -0.0000000000e+00 -0.0000000000e+00 -4.4721471353e+01 1.0000100000e+04 1.0000000000e+04 0.0000e+00 -1.0000e+00
      -24  1    1    2    0    0 +2.3869387376e+03 +3.6201069274e+03 +6.7671865493e+03 8.0376512220e+03 7.9829010000e+01 0.0000e+00 -1.0000e+00
       24  1    1    2    0    0 +4.2899751322e+02 +5.2826598242e+02 -3.5394496349e+03 3.6051602188e+03 7.9829010000e+01 0.0000e+00 -1.0000e+00
       22  1    1    2    0    0 -4.5582262786e+03 -2.2406771321e+03 -1.7011028342e+03 5.3564738093e+03 0.0000000000e+00 0.0000e+00 -1.0000e+00
       22  1    1    2    0    0 +1.7422900278e+03 -1.9076957778e+03 -1.5266340801e+03 3.0009147499e+03 0.0000000000e+00 0.0000e+00 -1.0000e+00
</event>
<event>
 6      1 +1.4834189e-01 1.00189400e+04 7.81653100e-03 6.93758300e-02
  1000022 -1    0    0    0    0 +0.0000000000e+00 +0.0000000000e+00 +4.4721471353e+01 1.0000100000e+04 1.0000000000e+04 0.0000e+00 1.0000e+00
  1000022 -1    0    0    0    0 -0.0000000000e+00 -0.0000000000e+00 -4.4721471353e+01 1.0000100000e+04 1.0000000000e+04 0.0000e+00 1.0000e+00
      -24  1    1    2    0    0 +3.7235908424e+03 +8.5801022314e+03 -1.6179422547e+03 9.4924913944e+03 7.9829010000e+01 0.0000e+00 1.0000e+00
       24  1    1    2    0    0 -3.3236332754e+03 -8.0885833749e+03 +1.5965814158e+03 8.8897223832e+03 7.9829010000e+01 0.0000e+00 1.0000e+00
       22  1    1    2    0    0 -4.2576319851e+02 -9.8361757334e+02 +2.0660723562e+02 1.0915422033e+03 0.0000000000e+00 0.0000e+00 1.0000e+00
       22  1    1    2    0    0 +2.5805631541e+01 +4.9209871680e+02 -1.8524639677e+02 5.2644401907e+02 0.0000000000e+00 0.0000e+00 -1.0000e+00
</event>
<event>
 6      1 +1.4834189e-01 1.00131500e+04 7.81653100e-03 6.93793200e-02
  1000022 -1    0    0    0    0 +0.0000000000e+00 +0.0000000000e+00 +4.4721471353e+01 1.0000100000e+04 1.0000000000e+04 0.0000e+00 1.0000e+00
  1000022 -1    0    0    0    0 -0.0000000000e+00 -0.0000000000e+00 -4.4721471353e+01 1.0000100000e+04 1.0000000000e+04 0.0000e+00 1.0000e+00
      -24  1    1    2    0    0 -6.0787998012e+03 -7.1032705303e+02 +1.6588066671e+03 6.3414811973e+03 7.9829010000e+01 0.0000e+00 -1.0000e+00
       24  1    1    2    0    0 +1.5060439802e+02 +5.6838341487e+01 -2.8218184127e+00 1.7970229621e+02 7.9829010000e+01 0.0000e+00 -1.0000e+00
       22  1    1    2    0    0 -3.4997685496e+03 -5.0268695288e+02 +8.8831197793e+02 3.6455688505e+03 0.0000000000e+00 0.0000e+00 1.0000e+00
       22  1    1    2    0    0 +9.4279639528e+03 +1.1561756644e+03 -2.5442968266e+03 9.8334476561e+03 0.0000000000e+00 0.0000e+00 -1.0000e+00
</event>
<event>
 6      1 +1.4834189e-01 1.00199500e+04 7.81653100e-03 6.93752200e-02
  1000022 -1    0    0    0    0 +0.0000000000e+00 +0.0000000000e+00 +4.4721471353e+01 1.0000100000e+04 1.0000000000e+04 0.0000e+00 -1.0000e+00
  1000022 -1    0    0    0    0 -0.0000000000e+00 -0.0000000000e+00 -4.4721471353e+01 1.0000100000e+04 1.0000000000e+04 0.0000e+00 -1.0000e+00
      -24  1    1    2    0    0 +6.2334388823e+03 -2.4002438111e+03 -9.5195742598e+02 6.7475570589e+03 7.9829010000e+01 0.0000e+00 -1.0000e+00
       24  1    1    2    0    0 -9.1645179600e+03 +3.6673877295e+03 +1.4700288014e+03 9.9802544831e+03 7.9829010000e+01 0.0000e+00 -1.0000e+00
       22  1    1    2    0    0 +2.4237374442e+02 -2.3969480287e+02 -1.4324898264e+02 3.6975519136e+02 0.0000000000e+00 0.0000e+00 1.0000e+00
       22  1    1    2    0    0 +2.6887053333e+03 -1.0274491156e+03 -3.7482239282e+02 2.9026332666e+03 0.0000000000e+00 0.0000e+00 -1.0000e+00
</event>
<event>
 6      1 +1.4834189e-01 1.00740300e+04 7.81653100e-03 6.93427500e-02
  1000022 -1    0    0    0    0 +0.0000000000e+00 +0.0000000000e+00 +4.4721471353e+01 1.0000100000e+04 1.0000000000e+04 0.0000e+00 1.0000e+00
  1000022 -1    0    0    0    0 -0.0000000000e+00 -0.0000000000e+00 -4.4721471353e+01 1.0000100000e+04 1.0000000000e+04 0.0000e+00 1.0000e+00
      -24  1    1    2    0    0 -7.8451788672e+02 +4.4796937840e+03 -4.6103092693e+03 6.4764534232e+03 7.9829010000e+01 0.0000e+00 1.0000e+00
       24  1    1    2    0    0 +8.6880897230e+02 -1.0838779809e+03 +1.5922907921e+03 2.1145645286e+03 7.9829010000e+01 0.0000e+00 1.0000e+00
       22  1    1    2    0    0 +3.7080862231e+02 -5.6861416809e+03 +5.5572797096e+03 7.9594638023e+03 0.0000000000e+00 0.0000e+00 1.0000e+00
       22  1    1    2    0    0 -4.5509970790e+02 +2.2903258778e+03 -2.5392612324e+03 3.4497182460e+03 0.0000000000e+00 0.0000e+00 1.0000e+00
</event>
<event>
 6      1 +1.4834189e-01 1.00310600e+04 7.81653100e-03 6.93685300e-02
  1000022 -1    0    0    0    0 +0.0000000000e+00 +0.0000000000e+00 +4.4721471353e+01 1.0000100000e+04 1.0000000000e+04 0.0000e+00 1.0000e+00
  1000022 -1    0    0    0    0 -0.0000000000e+00 -0.0000000000e+00 -4.4721471353e+01 1.0000100000e+04 1.0000000000e+04 0.0000e+00 1.0000e+00
      -24  1    1    2    0    0 +9.7372937802e+03 -6.8433415510e+02 -7.9669361194e+01 9.7619630851e+03 7.9829010000e+01 0.0000e+00 1.0000e+00
       24  1    1    2    0    0 -9.9170145281e+03 +7.9868796134e+02 -5.7228888150e+01 9.9496094108e+03 7.9829010000e+01 0.0000e+00 1.0000e+00
       22  1    1    2    0    0 +1.9416931478e+02 -1.2745704177e+02 +1.3588854206e+02 2.6909610953e+02 0.0000000000e+00 0.0000e+00 -1.0000e+00
       22  1    1    2    0    0 -1.4448566853e+01 +1.3103235541e+01 +1.0097072834e+00 1.9531394588e+01 0.0000000000e+00 0.0000e+00 1.0000e+00
</event>
<event>
 6      1 +1.4834189e-01 1.00215400e+04 7.81653100e-03 6.93742600e-02
  1000022 -1    0    0    0    0 +0.0000000000e+00 +0.0000000000e+00 +4.4721471353e+01 1.0000100000e+04 1.0000000000e+04 0.0000e+00 1.0000e+00
  1000022 -1    0    0    0    0 -0.0000000000e+00 -0.0000000000e+00 -4.4721471353e+01 1.0000100000e+04 1.0000000000e+04 0.0000e+00 1.0000e+00
      -24  1    1    2    0    0 +7.9885949029e+03 -3.3035562621e+03 +4.6603131627e+03 9.8212027748e+03 7.9829010000e+01 0.0000e+00 -1.0000e+00
       24  1    1    2    0    0 -8.1328684651e+03 +3.3304044523e+03 -4.6770216848e+03 9.9557042844e+03 7.9829010000e+01 0.0000e+00 -1.0000e+00
       22  1    1    2    0    0 +1.2893496819e+02 -4.5980712361e+01 +7.7807840587e+01 1.5745638123e+02 0.0000000000e+00 0.0000e+00 -1.0000e+00
       22  1    1    2    0    0 +1.5338594004e+01 +1.9132522103e+01 -6.1099318406e+01 6.5836559583e+01 0.0000000000e+00 0.0000e+00 1.0000e+00
</event>
<event>
 6      1 +1.4834189e-01 1.00789200e+04 7.81653100e-03 6.93398200e-02
  1000022 -1    0    0    0    0 +0.0000000000e+00 +0.0000000000e+00 +4.4721471353e+01 1.0000100000e+04 1.0000000000e+04 0.0000e+00 1.0000e+00
  1000022 -1    0    0    0    0 -0.0000000000e+00 -0.0000000000e+00 -4.4721471353e+01 1.0000100000e+04 1.0000000000e+04 0.0000e+00 1.0000e+00
      -24  1    1    2    0    0 +8.1620273155e+02 +8.4139233416e+03 -4.8253824798e+03 9.7340115905e+03 7.9829010000e+01 0.0000e+00 -1.0000e+00
       24  1    1    2    0    0 -7.3185855287e+02 -8.1096828543e+03 +4.9850662553e+03 9.5477657690e+03 7.9829010000e+01 0.0000e+00 -1.0000e+00
       22  1    1    2    0    0 -5.7559219557e+01 +2.2131731170e+01 -3.3934746241e+02 3.4490517179e+02 0.0000000000e+00 0.0000e+00 1.0000e+00
       22  1    1    2    0    0 -2.6784959124e+01 -3.2637221845e+02 +1.7966368694e+02 3.7351746869e+02 0.0000000000e+00 0.0000e+00 1.0000e+00
</event>
<event>
 6      1 +1.4834189e-01 1.01681100e+04 7.81653100e-03 6.92867400e-02
  1000022 -1    0    0    0    0 +0.0000000000e+00 +0.0000000000e+00 +4.4721471353e+01 1.0000100000e+04 1.0000000000e+04 0.0000e+00 1.0000e+00
  1000022 -1    0    0    0    0 -0.0000000000e+00 -0.0000000000e+00 -4.4721471353e+01 1.0000100000e+04 1.0000000000e+04 0.0000e+00 1.0000e+00
      -24  1    1    2    0    0 -5.4048354863e+02 -1.5356858251e+03 +7.4931699190e+03 7.6684041055e+03 7.9829010000e+01 0.0000e+00 1.0000e+00
       24  1    1    2    0    0 +1.0062128753e+03 +3.2509543287e+03 -9.2240175618e+03 9.8320924045e+03 7.9829010000e+01 0.0000e+00 1.0000e+00
       22  1    1    2    0    0 -4.4389048130e+02 -1.7215142733e+03 +1.6896843316e+03 2.4526889923e+03 0.0000000000e+00 0.0000e+00 -1.0000e+00
       22  1    1    2    0    0 -2.1838845362e+01 +6.2457696403e+00 +4.1163311279e+01 4.7014497770e+01 0.0000000000e+00 0.0000e+00 1.0000e+00
</event>
<event>
 6      1 +1.4834189e-01 1.01235700e+04 7.81653100e-03 6.93131800e-02
  1000022 -1    0    0    0    0 +0.0000000000e+00 +0.0000000000e+00 +4.4721471353e+01 1.0000100000e+04 1.0000000000e+04 0.0000e+00 1.0000e+00
  1000022 -1    0    0    0    0 -0.0000000000e+00 -0.0000000000e+00 -4.4721471353e+01 1.0000100000e+04 1.0000000000e+04 0.0000e+00 1.0000e+00
      -24  1    1    2    0    0 +9.0113288544e+03 +3.6442494705e+03 -1.7483727701e+03 9.8766280653e+03 7.9829010000e+01 0.0000e+00 1.0000e+00
       24  1    1    2    0    0 -8.4505193415e+03 -3.0387284620e+03 +1.6201525304e+03 9.1255911973e+03 7.9829010000e+01 0.0000e+00 1.0000e+00
       22  1    1    2    0    0 -5.3505424426e+02 -1.9825816903e+02 +1.4779797382e+02 5.8943497263e+02 0.0000000000e+00 0.0000e+00 1.0000e+00
       22  1    1    2    0    0 -2.5755268613e+01 -4.0726283948e+02 -1.9577734133e+01 4.0854576482e+02 0.0000000000e+00 0.0000e+00 -1.0000e+00
</event>
<event>
 6      1 +1.4834189e-01 1.01957300e+04 7.81653100e-03 6.92704100e-02
  1000022 -1    0    0    0    0 +0.0000000000e+00 +0.0000000000e+00 +4.4721471353e+01 1.0000100000e+04 1.0000000000e+04 0.0000e+00 1.0000e+00
  1000022 -1    0    0    0    0 -0.0000000000e+00 -0.0000000000e+00 -4.4721471353e+01 1.0000100000e+04 1.0000000000e+04 0.0000e+00 1.0000e+00
      -24  1    1    2    0    0 -5.7880576175e+03 +5.6304578884e+03 -4.3629761786e+03 9.1785402337e+03 7.9829010000e+01 0.0000e+00 -1.0000e+00
       24  1    1    2    0    0 +5.6827223365e+03 -6.4891959392e+03 +4.6602912684e+03 9.8044726766e+03 7.9829010000e+01 0.0000e+00 -1.0000e+00
       22  1    1    2    0    0 +1.0363964104e+02 +8.9458953263e+02 -2.1280948698e+02 9.2537532107e+02 0.0000000000e+00 0.0000e+00 -1.0000e+00
       22  1    1    2    0    0 +1.6956399921e+00 -3.5851481843e+01 -8.4505602775e+01 9.1811768557e+01 0.0000000000e+00 0.0000e+00 -1.0000e+00
</event>
<event>
 6      1 +1.4834189e-01 1.01304900e+04 7.81653100e-03 6.93090600e-02
  1000022 -1    0    0    0    0 +0.0000000000e+00 +0.0000000000e+00 +4.4721471353e+01 1.0000100000e+04 1.0000000000e+04 0.0000e+00 -1.0000e+00
  1000022 -1    0    0    0    0 -0.0000000000e+00 -0.0000000000e+00 -4.4721471353e+01 1.0000100000e+04 1.0000000000e+04 0.0000e+00 -1.0000e+00
      -24  1    1    2    0    0 +3.6634318956e+02 -1.1170824944e+03 -1.6792430260e+02 1.1902318572e+03 7.9829010000e+01 0.0000e+00 1.0000e+00
       24  1    1    2    0    0 -3.0999225203e+03 +9.2758778906e+03 -1.3241398705e+03 9.8697086755e+03 7.9829010000e+01 0.0000e+00 1.0000e+00
       22  1    1    2    0    0 +2.9284243723e+03 -8.0347276885e+03 +1.5735434559e+03 8.6953181276e+03 0.0000000000e+00 0.0000e+00 1.0000e+00
       22  1    1    2    0    0 -1.9484504158e+02 -1.2406770766e+02 -8.1479282852e+01 2.4494133960e+02 0.0000000000e+00 0.0000e+00 -1.0000e+00
</event>
<event>
 6      1 +1.4834189e-01 1.00434400e+04 7.81653100e-03 6.93610900e-02
  1000022 -1    0    0    0    0 +0.0000000000e+00 +0.0000000000e+00 +4.4721471353e+01 1.0000100000e+04 1.0000000000e+04 0.0000e+00 1.0000e+00
  1000022 -1    0    0    0    0 -0.0000000000e+00 -0.0000000000e+00 -4.4721471353e+01 1.0000100000e+04 1.0000000000e+04 0.0000e+00 1.0000e+00
      -24  1    1    2    0    0 +5.3435941334e+03 +8.2087466361e+03 +1.6200474863e+03 9.9281642879e+03 7.9829010000e+01 0.0000e+00 -1.0000e+00
       24  1    1    2    0    0 -4.8522182687e+03 -6.5872572751e+03 -1.5525882776e+03 8.3278378686e+03 7.9829010000e+01 0.0000e+00 -1.0000e+00
       22  1    1    2    0    0 +1.8825591612e+01 +1.4363919088e+01 +1.6030225847e+01 2.8595335490e+01 0.0000000000e+00 0.0000e+00 -1.0000e+00
       22  1    1    2    0    0 -5.1020145636e+02 -1.6358532800e+03 -8.3489434580e+01 1.7156025080e+03 0.0000000000e+00 0.0000e+00 -1.0000e+00
</event>
<event>
 6      1 +1.4834189e-01 1.00582000e+04 7.81653100e-03 6.93522300e-02
  1000022 -1    0    0    0    0 +0.0000000000e+00 +0.0000000000e+00 +4.4721471353e+01 1.0000100000e+04 1.0000000000e+04 0.0000e+00 1.0000e+00
  1000022 -1    0    0    0    0 -0.0000000000e+00 -0.0000000000e+00 -4.4721471353e+01 1.0000100000e+04 1.0000000000e+04 0.0000e+00 1.0000e+00
      -24  1    1    2    0    0 -8.0379718217e+03 -4.1482457168e+03 -3.9950789317e+03 9.8885773433e+03 7.9829010000e+01 0.0000e+00 1.0000e+00
       24  1    1    2    0    0 +7.8490482221e+03 +4.1262466595e+03 +4.1509153899e+03 9.7913196624e+03 7.9829010000e+01 0.0000e+00 1.0000e+00
       22  1    1    2    0    0 +2.3011838181e+02 +4.2145154325e+01 -1.2842288053e+02 2.6687660056e+02 0.0000000000e+00 0.0000e+00 -1.0000e+00
       22  1    1    2    0    0 -4.1194782228e+01 -2.0146096970e+01 -2.7413577648e+01 5.3426393714e+01 0.0000000000e+00 0.0000e+00 1.0000e+00
</event>
<event>
 6      1 +1.4834189e-01 8.74953800e+03 7.81653100e-03 7.02035000e-02
  1000022 -1    0    0    0    0 +0.0000000000e+00 +0.0000000000e+00 +4.4721471353e+01 1.0000100000e+04 1.0000000000e+04 0.0000e+00 -1.0000e+00
  1000022 -1    0    0    0    0 -0.0000000000e+00 -0.0000000000e+00 -4.4721471353e+01 1.0000100000e+04 1.0000000000e+04 0.0000e+00 -1.0000e+00
      -24  1    1    2    0    0 +6.8184006877e+01 -1.4349019929e+03 -6.3319415212e+02 1.5719097598e+03 7.9829010000e+01 0.0000e+00 1.0000e+00
       24  1    1    2    0    0 -4.9957677715e+03 -1.3491966271e+03 -6.1865524411e+03 8.0658434737e+03 7.9829010000e+01 0.0000e+00 1.0000e+00
       22  1    1    2    0    0 +5.1576621822e+03 +3.2840878597e+03 +7.3753950798e+03 9.5803530644e+03 0.0000000000e+00 0.0000e+00 1.0000e+00
       22  1    1    2    0    0 -2.3007841749e+02 -4.9998923976e+02 -5.5564848660e+02 7.8209370202e+02 0.0000000000e+00 0.0000e+00 1.0000e+00
</event>
<event>
 6      1 +1.4834189e-01 6.87169800e+03 7.81653100e-03 7.17302200e-02
  1000022 -1    0    0    0    0 +0.0000000000e+00 +0.0000000000e+00 +4.4721471353e+01 1.0000100000e+04 1.0000000000e+04 0.0000e+00 1.0000e+00
  1000022 -1    0    0    0    0 -0.0000000000e+00 -0.0000000000e+00 -4.4721471353e+01 1.0000100000e+04 1.0000000000e+04 0.0000e+00 1.0000e+00
      -24  1    1    2    0    0 +4.4291398912e+03 +4.8994364737e+03 +3.4920496616e+02 6.6143839255e+03 7.9829010000e+01 0.0000e+00 1.0000e+00
       24  1    1    2    0    0 +3.3545521957e+03 -3.4812276534e+03 -1.8959502916e+03 5.1935504800e+03 7.9829010000e+01 0.0000e+00 -1.0000e+00
       22  1    1    2    0    0 -7.8360568322e+03 -1.3572908345e+03 +1.5748344462e+03 8.1071652641e+03 0.0000000000e+00 0.0000e+00 1.0000e+00
       22  1    1    2    0    0 +5.2364745268e+01 -6.0917985734e+01 -2.8089120747e+01 8.5100330417e+01 0.0000000000e+00 0.0000e+00 1.0000e+00
</event>
<event>
 6      1 +1.4834189e-01 1.00036900e+04 7.81653100e-03 6.93850200e-02
  1000022 -1    0    0    0    0 +0.0000000000e+00 +0.0000000000e+00 +4.4721471353e+01 1.0000100000e+04 1.0000000000e+04 0.0000e+00 -1.0000e+00
  1000022 -1    0    0    0    0 -0.0000000000e+00 -0.0000000000e+00 -4.4721471353e+01 1.0000100000e+04 1.0000000000e+04 0.0000e+00 -1.0000e+00
      -24  1    1    2    0    0 -7.4595707548e+03 -6.3993370009e+03 -1.7389707289e+03 9.9813376740e+03 7.9829010000e+01 0.0000e+00 1.0000e+00
       24  1    1    2    0    0 +7.4683009821e+03 +6.3842534049e+03 +1.7385926282e+03 9.9781405128e+03 7.9829010000e+01 0.0000e+00 1.0000e+00
       22  1    1    2    0    0 +1.3252360442e+01 +1.2272184774e+01 +3.3241183639e+00 1.8365220917e+01 0.0000000000e+00 0.0000e+00 1.0000e+00
       22  1    1    2    0    0 -2.1982587731e+01 +2.8114112160e+00 -2.9460176333e+00 2.2356592233e+01 0.0000000000e+00 0.0000e+00 1.0000e+00
</event>
<event>
 6      1 +1.4834189e-01 1.02141100e+04 7.81653100e-03 6.92595700e-02
  1000022 -1    0    0    0    0 +0.0000000000e+00 +0.0000000000e+00 +4.4721471353e+01 1.0000100000e+04 1.0000000000e+04 0.0000e+00 -1.0000e+00
  1000022 -1    0    0    0    0 -0.0000000000e+00 -0.0000000000e+00 -4.4721471353e+01 1.0000100000e+04 1.0000000000e+04 0.0000e+00 -1.0000e+00
      -24  1    1    2    0    0 +5.0601912979e+03 -1.3952813485e+03 -2.9877451496e+03 6.0403095751e+03 7.9829010000e+01 0.0000e+00 -1.0000e+00
       24  1    1    2    0    0 -8.1600681993e+03 +5.5932510339e+02 +5.3723038481e+03 9.7860910938e+03 7.9829010000e+01 0.0000e+00 1.0000e+00
       22  1    1    2    0    0 +6.9295706412e+02 +1.5842067666e+02 +1.1104614470e+01 7.1092187754e+02 0.0000000000e+00 0.0000e+00 1.0000e+00
       22  1    1    2    0    0 +2.4069198373e+03 +6.7753556848e+02 -2.3956633130e+03 3.4628774536e+03 0.0000000000e+00 0.0000e+00 1.0000e+00
</event>
<event>
 6      1 +1.4834189e-01 1.00014900e+04 7.81653100e-03 6.93863500e-02
  1000022 -1    0    0    0    0 +0.0000000000e+00 +0.0000000000e+00 +4.4721471353e+01 1.0000100000e+04 1.0000000000e+04 0.0000e+00 1.0000e+00
  1000022 -1    0    0    0    0 -0.0000000000e+00 -0.0000000000e+00 -4.4721471353e+01 1.0000100000e+04 1.0000000000e+04 0.0000e+00 1.0000e+00
      -24  1    1    2    0    0 -1.8200781490e+03 -1.9321963624e+03 -5.8408919950e+02 2.7191175251e+03 7.9829010000e+01 0.0000e+00 1.0000e+00
       24  1    1    2    0    0 +6.8091751865e+03 +6.7944264757e+03 +2.6841717547e+03 9.9870039818e+03 7.9829010000e+01 0.0000e+00 1.0000e+00
       22  1    1    2    0    0 -2.9786340815e+00 +1.0357343709e+01 +4.5599582008e+00 1.1702138629e+01 0.0000000000e+00 0.0000e+00 -1.0000e+00
       22  1    1    2    0    0 -4.9861184034e+03 -4.8725874570e+03 -2.1046425134e+03 7.2823763544e+03 0.0000000000e+00 0.0000e+00 1.0000e+00
</event>
<event>
 6      1 +1.4834189e-01 1.01651700e+04 7.81653100e-03 6.92884800e-02
  1000022 -1    0    0    0    0 +0.0000000000e+00 +0.0000000000e+00 +4.4721471353e+01 1.0000100000e+04 1.0000000000e+04 0.0000e+00 1.0000e+00
  1000022 -1    0    0    0    0 -0.0000000000e+00 -0.0000000000e+00 -4.4721471353e+01 1.0000100000e+04 1.0000000000e+04 0.0000e+00 1.0000e+00
      -24  1    1    2    0    0 -3.8840431336e+03 +7.8529590879e+03 -4.4684112557e+03 9.8350307230e+03 7.9829010000e+01 0.0000e+00 1.0000e+00
       24  1    1    2    0    0 +4.1804762385e+03 -7.4718503195e+03 +4.1673433356e+03 9.5225023983e+03 7.9829010000e+01 0.0000e+00 1.0000e+00
       22  1    1    2    0    0 -3.5116515144e+02 -2.6696375349e+02 +2.3828374683e+02 5.0136389306e+02 0.0000000000e+00 0.0000e+00 1.0000e+00
       22  1    1    2    0    0 +5.4732046503e+01 -1.1414501498e+02 +6.2784173313e+01 1.4130298573e+02 0.0000000000e+00 0.0000e+00 1.0000e+00
</event>
<event>
 6      1 +1.4834189e-01 1.00155300e+04 7.81653100e-03 6.93778900e-02
  1000022 -1    0    0    0    0 +0.0000000000e+00 +0.0000000000e+00 +4.4721471353e+01 1.0000100000e+04 1.0000000000e+04 0.0000e+00 1.0000e+00
  1000022 -1    0    0    0    0 -0.0000000000e+00 -0.0000000000e+00 -4.4721471353e+01 1.0000100000e+04 1.0000000000e+04 0.0000e+00 1.0000e+00
      -24  1    1    2    0    0 +4.7585175378e+03 -5.1361044506e+02 +6.5619784145e+03 8.1223899333e+03 7.9829010000e+01 0.0000e+00 1.0000e+00
       24  1    1    2    0    0 -4.0053960519e+03 -4.5185680854e+02 -5.0071063315e+03 6.4284413814e+03 7.9829010000e+01 0.0000e+00 1.0000e+00
       22  1    1    2    0    0 -2.0488797691e+03 +5.1728471393e+02 -2.8602921716e+03 3.5562287736e+03 0.0000000000e+00 0.0000e+00 1.0000e+00
       22  1    1    2    0    0 +1.2957582833e+03 +4.4818253968e+02 +1.3054200886e+03 1.8931399117e+03 0.0000000000e+00 0.0000e+00 -1.0000e+00
</event>
<event>
 6      1 +1.4834189e-01 1.00001300e+04 7.81653100e-03 6.93871700e-02
  1000022 -1    0    0    0    0 +0.0000000000e+00 +0.0000000000e+00 +4.4721471353e+01 1.0000100000e+04 1.0000000000e+04 0.0000e+00 1.0000e+00
  1000022 -1    0    0    0    0 -0.0000000000e+00 -0.0000000000e+00 -4.4721471353e+01 1.0000100000e+04 1.0000000000e+04 0.0000e+00 1.0000e+00
      -24  1    1    2    0    0 +3.1693740819e+03 -2.1594354243e+03 -8.7433974018e+03 9.5478512881e+03 7.9829010000e+01 0.0000e+00 -1.0000e+00
       24  1    1    2    0    0 -3.3156930104e+03 +2.2540338074e+03 +9.1203474879e+03 9.9630115686e+03 7.9829010000e+01 0.0000e+00 -1.0000e+00
       22  1    1    2    0    0 +1.6052985351e+02 -1.0153238275e+02 -4.1046282416e+02 4.5228131581e+02 0.0000000000e+00 0.0000e+00 1.0000e+00
       22  1    1    2    0    0 -1.4210925066e+01 +6.9339995810e+00 +3.3512738061e+01 3.7055827528e+01 0.0000000000e+00 0.0000e+00 1.0000e+00
</event>
<event>
 6      1 +1.4834189e-01 1.00027700e+04 7.81653100e-03 6.93855800e-02
  1000022 -1    0    0    0    0 +0.0000000000e+00 +0.0000000000e+00 +4.4721471353e+01 1.0000100000e+04 1.0000000000e+04 0.0000e+00 1.0000e+00
  1000022 -1    0    0    0    0 -0.0000000000e+00 -0.0000000000e+00 -4.4721471353e+01 1.0000100000e+04 1.0000000000e+04 0.0000e+00 1.0000e+00
      -24  1    1    2    0    0 +8.5748372354e+02 +5.8596126045e+03 -1.8161256658e+03 6.1947577286e+03 7.9829010000e+01 0.0000e+00 1.0000e+00
       24  1    1    2    0    0 -1.3672393371e+03 -7.5053127078e+03 +2.3359184773e+03 7.9788439044e+03 7.9829010000e+01 0.0000e+00 1.0000e+00
       22  1    1    2    0    0 -4.8297117818e+02 -1.7652649727e+03 +8.5162286175e+02 2.0185844251e+03 0.0000000000e+00 0.0000e+00 1.0000e+00
       22  1    1    2    0    0 +9.9272679171e+02 +3.4109650761e+03 -1.3714156732e+03 3.8080139419e+03 0.0000000000e+00 0.0000e+00 1.0000e+00
</event>
<event>
 6      1 +1.4834189e-01 1.00041100e+04 7.81653100e-03 6.93847700e-02
  1000022 -1    0    0    0    0 +0.0000000000e+00 +0.0000000000e+00 +4.4721471353e+01 1.0000100000e+04 1.0000000000e+04 0.0000e+00 1.0000e+00
  1000022 -1    0    0    0    0 -0.0000000000e+00 -0.0000000000e+00 -4.4721471353e+01 1.0000100000e+04 1.0000000000e+04 0.0000e+00 1.0000e+00
      -24  1    1    2    0    0 +4.7737846518e+03 +8.5673088715e+03 -1.6454545709e+03 9.9449331127e+03 7.9829010000e+01 0.0000e+00 1.0000e+00
       24  1    1    2    0    0 -4.7201054759e+03 -8.5132308494e+03 +1.5755340044e+03 9.8611954280e+03 7.9829010000e+01 0.0000e+00 1.0000e+00
       22  1    1    2    0    0 -9.1122729382e+01 -9.0255201062e+01 +4.1784230366e+01 1.3488986261e+02 0.0000000000e+00 0.0000e+00 1.0000e+00
       22  1    1    2    0    0 +3.7443553485e+01 +3.6177178989e+01 +2.8136336087e+01 5.9181596680e+01 0.0000000000e+00 0.0000e+00 -1.0000e+00
</event>
<event>
 6      1 +1.4834189e-01 1.00861600e+04 7.81653100e-03 6.93354900e-02
  1000022 -1    0    0    0    0 +0.0000000000e+00 +0.0000000000e+00 +4.4721471353e+01 1.0000100000e+04 1.0000000000e+04 0.0000e+00 -1.0000e+00
  1000022 -1    0    0    0    0 -0.0000000000e+00 -0.0000000000e+00 -4.4721471353e+01 1.0000100000e+04 1.0000000000e+04 0.0000e+00 -1.0000e+00
      -24  1    1    2    0    0 +3.8241970949e+01 +2.8067568096e+03 +9.5080238448e+03 9.9140423815e+03 7.9829010000e+01 0.0000e+00 1.0000e+00
       24  1    1    2    0    0 +2.2237827570e+02 -2.5216640565e+03 -8.4549144563e+03 8.8261085901e+03 7.9829010000e+01 0.0000e+00 1.0000e+00
       22  1    1    2    0    0 +6.2109466896e+01 -1.2179578081e+02 +1.0013255072e+01 1.3708414708e+02 0.0000000000e+00 0.0000e+00 1.0000e+00
       22  1    1    2    0    0 -3.2272971355e+02 -1.6329697230e+02 -1.0631226437e+03 1.1229648813e+03 0.0000000000e+00 0.0000e+00 1.0000e+00
</event>
<event>
 6      1 +1.4834189e-01 1.00014500e+04 7.81653100e-03 6.93863800e-02
  1000022 -1    0    0    0    0 +0.0000000000e+00 +0.0000000000e+00 +4.4721471353e+01 1.0000100000e+04 1.0000000000e+04 0.0000e+00 -1.0000e+00
  1000022 -1    0    0    0    0 -0.0000000000e+00 -0.0000000000e+00 -4.4721471353e+01 1.0000100000e+04 1.0000000000e+04 0.0000e+00 -1.0000e+00
      -24  1    1    2    0    0 -5.0357644874e+03 +7.0031049758e+03 -4.8449117572e+03 9.8935305064e+03 7.9829010000e+01 0.0000e+00 1.0000e+00
       24  1    1    2    0    0 +5.0966274439e+03 -7.0739523084e+03 +4.8941065176e+03 9.9987531143e+03 7.9829010000e+01 0.0000e+00 1.0000e+00
       22  1    1    2    0    0 -4.5608759009e+00 +1.8885130127e+01 -1.0483444880e+01 2.2076058196e+01 0.0000000000e+00 0.0000e+00 -1.0000e+00
       22  1    1    2    0    0 -5.6302080601e+01 +5.1962202526e+01 -3.8711315533e+01 8.5840321071e+01 0.0000000000e+00 0.0000e+00 -1.0000e+00
</event>
<event>
 6      1 +1.4834189e-01 1.14291500e+04 7.81653100e-03 6.85900400e-02
  1000022 -1    0    0    0    0 +0.0000000000e+00 +0.0000000000e+00 +4.4721471353e+01 1.0000100000e+04 1.0000000000e+04 0.0000e+00 1.0000e+00
  1000022 -1    0    0    0    0 -0.0000000000e+00 -0.0000000000e+00 -4.4721471353e+01 1.0000100000e+04 1.0000000000e+04 0.0000e+00 1.0000e+00
      -24  1    1    2    0    0 +2.8641526409e+03 +4.6786865904e+03 +5.2967841838e+03 7.6259933072e+03 7.9829010000e+01 0.0000e+00 1.0000e+00
       24  1    1    2    0    0 -3.6951564370e+02 -1.0265011698e+03 -5.4973626612e+02 1.2242667584e+03 7.9829010000e+01 0.0000e+00 -1.0000e+00
       22  1    1    2    0    0 -4.7855560772e+02 +2.9802569277e+03 -2.3136679186e+03 3.8031573806e+03 0.0000000000e+00 0.0000e+00 1.0000e+00
       22  1    1    2    0    0 -2.0160813895e+03 -6.6324423483e+03 -2.4333799991e+03 7.3467825538e+03 0.0000000000e+00 0.0000e+00 1.0000e+00
</event>
<event>
 6      1 +1.4834189e-01 1.00270900e+04 7.81653100e-03 6.93709200e-02
  1000022 -1    0    0    0    0 +0.0000000000e+00 +0.0000000000e+00 +4.4721471353e+01 1.0000100000e+04 1.0000000000e+04 0.0000e+00 1.0000e+00
  1000022 -1    0    0    0    0 -0.0000000000e+00 -0.0000000000e+00 -4.4721471353e+01 1.0000100000e+04 1.0000000000e+04 0.0000e+00 1.0000e+00
      -24  1    1    2    0    0 -4.3277368085e+03 -7.8969776866e+03 +3.0968317000e+03 9.5230405709e+03 7.9829010000e+01 0.0000e+00 1.0000e+00
       24  1    1    2    0    0 +3.7087871773e+03 +5.8090172837e+03 -2.4398425182e+03 7.3115653805e+03 7.9829010000e+01 0.0000e+00 1.0000e+00
       22  1    1    2    0    0 +8.3126184416e+02 +2.4590036614e+03 -7.9774072832e+02 2.7155267500e+03 0.0000000000e+00 0.0000e+00 1.0000e+00
       22  1    1    2    0    0 -2.1231221292e+02 -3.7104325845e+02 +1.4075154653e+02 4.5006729858e+02 0.0000000000e+00 0.0000e+00 1.0000e+00
</event>
<event>
 6      1 +1.4834189e-01 1.00018100e+04 7.81653100e-03 6.93861600e-02
  1000022 -1    0    0    0    0 +0.0000000000e+00 +0.0000000000e+00 +4.4721471353e+01 1.0000100000e+04 1.0000000000e+04 0.0000e+00 -1.0000e+00
  1000022 -1    0    0    0    0 -0.0000000000e+00 -0.0000000000e+00 -4.4721471353e+01 1.0000100000e+04 1.0000000000e+04 0.0000e+00 -1.0000e+00
      -24  1    1    2    0    0 -1.0427988637e+03 -3.9639909472e+03 +3.2781166961e+03 5.2491023465e+03 7.9829010000e+01 0.0000e+00 1.0000e+00
       24  1    1    2    0    0 +1.8996489993e+03 +7.6067493859e+03 -6.2040418425e+03 9.9983903902e+03 7.9829010000e+01 0.0000e+00 1.0000e+00
       22  1    1    2    0    0 -8.4047622382e+02 -3.6245357603e+03 +2.9092826629e+03 4.7230906590e+03 0.0000000000e+00 0.0000e+00 -1.0000e+00
       22  1    1    2    0    0 -1.6373911796e+01 -1.8222678433e+01 +1.6642483467e+01 2.9616604341e+01 0.0000000000e+00 0.0000e+00 -1.0000e+00
</event>
<event>
 6      1 +1.4834189e-01 1.00001500e+04 7.81653100e-03 6.93871700e-02
  1000022 -1    0    0    0    0 +0.0000000000e+00 +0.0000000000e+00 +4.4721471353e+01 1.0000100000e+04 1.0000000000e+04 0.0000e+00 -1.0000e+00
  1000022 -1    0    0    0    0 -0.0000000000e+00 -0.0000000000e+00 -4.4721471353e+01 1.0000100000e+04 1.0000000000e+04 0.0000e+00 -1.0000e+00
      -24  1    1    2    0    0 -7.8510626868e+03 -4.7302843027e+03 +3.9129427176e+03 9.9665574939e+03 7.9829010000e+01 0.0000e+00 1.0000e+00
       24  1    1    2    0    0 +7.8555345364e+03 +4.7342216702e+03 -3.9193497037e+03 9.9744650206e+03 7.9829010000e+01 0.0000e+00 1.0000e+00
       22  1    1    2    0    0 -5.0766583774e+00 -2.0985520801e+01 +2.5606597872e+01 3.3494214399e+01 0.0000000000e+00 0.0000e+00 1.0000e+00
       22  1    1    2    0    0 +6.0480878115e-01 +1.7048153316e+01 -1.9199611775e+01 2.5683271159e+01 0.0000000000e+00 0.0000e+00 -1.0000e+00
</event>
<event>
 6      1 +1.4834189e-01 1.00530700e+04 7.81653100e-03 6.93553100e-02
  1000022 -1    0    0    0    0 +0.0000000000e+00 +0.0000000000e+00 +4.4721471353e+01 1.0000100000e+04 1.0000000000e+04 0.0000e+00 1.0000e+00
  1000022 -1    0    0    0    0 -0.0000000000e+00 -0.0000000000e+00 -4.4721471353e+01 1.0000100000e+04 1.0000000000e+04 0.0000e+00 1.0000e+00
      -24  1    1    2    0    0 +1.4704859332e+03 -8.7879183448e+02 +2.0742594000e+02 1.7274264556e+03 7.9829010000e+01 0.0000e+00 1.0000e+00
       24  1    1    2    0    0 -9.5731450091e+03 +2.5117526171e+03 +2.8238948391e+02 9.9015212501e+03 7.9829010000e+01 0.0000e+00 1.0000e+00
       22  1    1    2    0    0 -4.4187474427e+01 +1.0897158555e+01 +3.0351216267e+00 4.5612420722e+01 0.0000000000e+00 0.0000e+00 -1.0000e+00
       22  1    1    2    0    0 +8.1468465503e+03 -1.6438579412e+03 -4.9285054554e+02 8.3256398737e+03 0.0000000000e+00 0.0000e+00 1.0000e+00
</event>
<event>
 6      1 +1.4834189e-01 1.00017300e+04 7.81653100e-03 6.93862100e-02
  1000022 -1    0    0    0    0 +0.0000000000e+00 +0.0000000000e+00 +4.4721471353e+01 1.0000100000e+04 1.0000000000e+04 0.0000e+00 1.0000e+00
  1000022 -1    0    0    0    0 -0.0000000000e+00 -0.0000000000e+00 -4.4721471353e+01 1.0000100000e+04 1.0000000000e+04 0.0000e+00 1.0000e+00
      -24  1    1    2    0    0 -4.5421263744e+03 -2.6642276896e+03 +7.6913747852e+03 9.3216221732e+03 7.9829010000e+01 0.0000e+00 -1.0000e+00
       24  1    1    2    0    0 +4.8984958088e+03 +2.8790378677e+03 -8.2267155242e+03 9.9984669435e+03 7.9829010000e+01 0.0000e+00 -1.0000e+00
       22  1    1    2    0    0 -3.5284267972e+02 -2.0445735244e+02 +5.1392291585e+02 6.5606213809e+02 0.0000000000e+00 0.0000e+00 -1.0000e+00
       22  1    1    2    0    0 -3.5267547234e+00 -1.0352825652e+01 +2.1417823183e+01 2.4048745243e+01 0.0000000000e+00 0.0000e+00 1.0000e+00
</event>
<event>
 6      1 +1.4834189e-01 1.00074100e+04 7.81653100e-03 6.93827800e-02
  1000022 -1    0    0    0    0 +0.0000000000e+00 +0.0000000000e+00 +4.4721471353e+01 1.0000100000e+04 1.0000000000e+04 0.0000e+00 -1.0000e+00
  1000022 -1    0    0    0    0 -0.0000000000e+00 -0.0000000000e+00 -4.4721471353e+01 1.0000100000e+04 1.0000000000e+04 0.0000e+00 -1.0000e+00
      -24  1    1    2    0    0 -8.7144492063e+03 -4.0591291544e+03 +1.2105683200e+03 9.6896853813e+03 7.9829010000e+01 0.0000e+00 -1.0000e+00
       24  1    1    2    0    0 +8.6385627261e+03 +3.9215730238e+03 -1.1592317662e+03 9.5579125290e+03 7.9829010000e+01 0.0000e+00 -1.0000e+00
       22  1    1    2    0    0 +3.9026863372e+02 +1.7574113794e+02 -7.6953180279e+01 4.3487509240e+02 0.0000000000e+00 0.0000e+00 -1.0000e+00
       22  1    1    2    0    0 -3.1438215353e+02 -3.8185007386e+01 +2.5616626435e+01 3.1772699727e+02 0.0000000000e+00 0.0000e+00 1.0000e+00
</event>
<event>
 6      1 +1.4834189e-01 1.01968900e+04 7.81653100e-03 6.92697300e-02
  1000022 -1    0    0    0    0 +0.0000000000e+00 +0.0000000000e+00 +4.4721471353e+01 1.0000100000e+04 1.0000000000e+04 0.0000e+00 -1.0000e+00
  1000022 -1    0    0    0    0 -0.0000000000e+00 -0.0000000000e+00 -4.4721471353e+01 1.0000100000e+04 1.0000000000e+04 0.0000e+00 -1.0000e+00
      -24  1    1    2    0    0 +9.3177740148e+03 -1.2039693919e+03 +2.7978757518e+03 9.8033125157e+03 7.9829010000e+01 0.0000e+00 1.0000e+00
       24  1    1    2    0    0 -3.4241152389e+02 +6.2493537135e+01 -2.1883260360e+02 4.1882152895e+02 7.9829010000e+01 0.0000e+00 -1.0000e+00
       22  1    1    2    0    0 -8.8080709197e+03 +1.0923998774e+03 -1.8995310066e+03 9.0765449850e+03 0.0000000000e+00 0.0000e+00 1.0000e+00
       22  1    1    2    0    0 -1.6729157115e+02 +4.9075977329e+01 -6.7951214159e+02 7.0152097039e+02 0.0000000000e+00 0.0000e+00 -1.0000e+00
</event>
<event>
 6      1 +1.4834189e-01 1.00331500e+04 7.81653100e-03 6.93672800e-02
  1000022 -1    0    0    0    0 +0.0000000000e+00 +0.0000000000e+00 +4.4721471353e+01 1.0000100000e+04 1.0000000000e+04 0.0000e+00 -1.0000e+00
  1000022 -1    0    0    0    0 -0.0000000000e+00 -0.0000000000e+00 -4.4721471353e+01 1.0000100000e+04 1.0000000000e+04 0.0000e+00 -1.0000e+00
      -24  1    1    2    0    0 +4.6510886288e+03 +6.3996995039e+03 -1.7757467242e+03 8.1085404527e+03 7.9829010000e+01 0.0000e+00 -1.0000e+00
       24  1    1    2    0    0 -6.0980935748e+03 -7.4607604041e+03 +2.1596815686e+03 9.8752361087e+03 7.9829010000e+01 0.0000e+00 -1.0000e+00
       22  1    1    2    0    0 +1.5051667394e+03 +1.1284760738e+03 -4.0635640028e+02 1.9246066317e+03 0.0000000000e+00 0.0000e+00 -1.0000e+00
       22  1    1    2    0    0 -5.8161793480e+01 -6.7415173631e+01 +2.2421555924e+01 9.1816806885e+01 0.0000000000e+00 0.0000e+00 -1.0000e+00
</event>
<event>
 6      1 +1.4834189e-01 1.01670400e+04 7.81653100e-03 6.92873700e-02
  1000022 -1    0    0    0    0 +0.0000000000e+00 +0.0000000000e+00 +4.4721471353e+01 1.0000100000e+04 1.0000000000e+04 0.0000e+00 1.0000e+00
  1000022 -1    0    0    0    0 -0.0000000000e+00 -0.0000000000e+00 -4.4721471353e+01 1.0000100000e+04 1.0000000000e+04 0.0000e+00 1.0000e+00
      -24  1    1    2    0    0 +2.5292134133e+02 -3.3775935877e+03 +8.7472570810e+03 9.3804577052e+03 7.9829010000e+01 0.0000e+00 -1.0000e+00
       24  1    1    2    0    0 -6.0868370978e+02 +2.2811408342e+03 -5.5330763187e+03 6.0162617616e+03 7.9829010000e+01 0.0000e+00 -1.0000e+00
       22  1    1    2    0    0 -2.7171975601e+02 +1.4633701231e+03 -3.5147498051e+03 3.8169031866e+03 0.0000000000e+00 0.0000e+00 -1.0000e+00
       22  1    1    2    0    0 +6.2748212445e+02 -3.6691736968e+02 +3.0056904287e+02 7.8657734662e+02 0.0000000000e+00 0.0000e+00 -1.0000e+00
</event>
<event>
 6      1 +1.4834189e-01 1.00100500e+04 7.81653100e-03 6.93811900e-02
  1000022 -1    0    0    0    0 +0.0000000000e+00 +0.0000000000e+00 +4.4721471353e+01 1.0000100000e+04 1.0000000000e+04 0.0000e+00 -1.0000e+00
  1000022 -1    0    0    0    0 -0.0000000000e+00 -0.0000000000e+00 -4.4721471353e+01 1.0000100000e+04 1.0000000000e+04 0.0000e+00 -1.0000e+00
      -24  1    1    2    0    0 +6.3605350193e+03 -2.8962498376e+03 +5.5324687307e+03 8.9139919105e+03 7.9829010000e+01 0.0000e+00 -1.0000e+00
       24  1    1    2    0    0 -7.1395179528e+03 +3.0333652170e+03 -6.2626113621e+03 9.9699897132e+03 7.9829010000e+01 0.0000e+00 -1.0000e+00
       22  1    1    2    0    0 +7.9376842557e+02 -1.4405052492e+02 +7.4196872894e+02 1.0960549539e+03 0.0000000000e+00 0.0000e+00 -1.0000e+00
       22  1    1    2    0    0 -1.4785492096e+01 +6.9351455244e+00 -1.1826097537e+01 2.0163422400e+01 0.0000000000e+00 0.0000e+00 1.0000e+00
</event>
<event>
 6      1 +1.4834189e-01 1.00061100e+04 7.81653100e-03 6.93835700e-02
  1000022 -1    0    0    0    0 +0.0000000000e+00 +0.0000000000e+00 +4.4721471353e+01 1.0000100000e+04 1.0000000000e+04 0.0000e+00 -1.0000e+00
  1000022 -1    0    0    0    0 -0.0000000000e+00 -0.0000000000e+00 -4.4721471353e+01 1.0000100000e+04 1.0000000000e+04 0.0000e+00 -1.0000e+00
      -24  1    1    2    0    0 +4.0129174114e+03 +4.7206346747e+03 -1.2886069210e+03 6.3288844476e+03 7.9829010000e+01 0.0000e+00 -1.0000e+00
       24  1    1    2    0    0 -5.7549988439e+03 -6.3205294036e+03 +2.2906669993e+03 8.8500074355e+03 7.9829010000e+01 0.0000e+00 -1.0000e+00
       22  1    1    2    0    0 +2.4892310380e+03 +2.4555034564e+03 -1.1385222002e+03 3.6772273774e+03 0.0000000000e+00 0.0000e+00 -1.0000e+00
       22  1    1    2    0    0 -7.4714960553e+02 -8.5560872752e+02 +1.3646212192e+02 1.1440807394e+03 0.0000000000e+00 0.0000e+00 -1.0000e+00
</event>
<event>
 6      1 +1.4834189e-01 1.00541400e+04 7.81653100e-03 6.93546700e-02
  1000022 -1    0    0    0    0 +0.0000000000e+00 +0.0000000000e+00 +4.4721471353e+01 1.0000100000e+04 1.0000000000e+04 0.0000e+00 1.0000e+00
  1000022 -1    0    0    0    0 -0.0000000000e+00 -0.0000000000e+00 -4.4721471353e+01 1.0000100000e+04 1.0000000000e+04 0.0000e+00 1.0000e+00
      -24  1    1    2    0    0 -4.0003351823e+02 -8.3382324194e+02 +9.0968307006e+02 1.2996861057e+03 7.9829010000e+01 0.0000e+00 -1.0000e+00
       24  1    1    2    0    0 +2.2444610258e+03 +5.5699945723e+03 -7.9281336811e+03 9.9460605854e+03 7.9829010000e+01 0.0000e+00 -1.0000e+00
       22  1    1    2    0    0 -7.7535917184e+02 -6.6950209717e+02 +1.5050651526e+03 1.8206141868e+03 0.0000000000e+00 0.0000e+00 -1.0000e+00
       22  1    1    2    0    0 -1.0690683358e+03 -4.0666692331e+03 +5.5133854585e+03 6.9338391221e+03 0.0000000000e+00 0.0000e+00 -1.0000e+00
</event>
<event>
 6      1 +1.4834189e-01 1.00477400e+04 7.81653100e-03 6.93585100e-02
  1000022 -1    0    0    0    0 +0.0000000000e+00 +0.0000000000e+00 +4.4721471353e+01 1.0000100000e+04 1.0000000000e+04 0.0000e+00 1.0000e+00
  1000022 -1    0    0    0    0 -0.0000000000e+00 -0.0000000000e+00 -4.4721471353e+01 1.0000100000e+04 1.0000000000e+04 0.0000e+00 1.0000e+00
      -24  1    1    2    0    0 +4.9537551322e+03 -4.6243935131e+03 +3.0889608701e+03 7.4480035716e+03 7.9829010000e+01 0.0000e+00 -1.0000e+00
       24  1    1    2    0    0 -6.2929629264e+03 +6.0084907300e+03 -4.8313319855e+03 9.9524612369e+03 7.9829010000e+01 0.0000e+00 -1.0000e+00
       22  1    1    2    0    0 +1.3084789406e+03 -1.3561127008e+03 +1.7247633302e+03 2.5545972952e+03 0.0000000000e+00 0.0000e+00 -1.0000e+00
       22  1    1    2    0    0 +3.0728853696e+01 -2.7984516090e+01 +1.7607785206e+01 4.5137896386e+01 0.0000000000e+00 0.0000e+00 1.0000e+00
</event>
<event>
 6      1 +1.4834189e-01 6.40733500e+03 7.81653100e-03 7.21850400e-02
  1000022 -1    0    0    0    0 +0.0000000000e+00 +0.0000000000e+00 +4.4721471353e+01 1.0000100000e+04 1.0000000000e+04 0.0000e+00 -1.0000e+00
  1000022 -1    0    0    0    0 -0.0000000000e+00 -0.0000000000e+00 -4.4721471353e+01 1.0000100000e+04 1.0000000000e+04 0.0000e+00 -1.0000e+00
      -24  1    1    2    0    0 -3.8901975111e+03 +7.1581044012e+03 +3.3875627095e+03 8.8234941534e+03 7.9829010000e+01 0.0000e+00 1.0000e+00
       24  1    1    2    0    0 +2.6618218814e+03 -5.0094136743e+03 +1.2143627811e+03 5.8017730672e+03 7.9829010000e+01 0.0000e+00 1.0000e+00
       22  1    1    2    0    0 -1.4057828103e+01 -6.6861368824e+01 +7.8382723022e+01 1.0398036565e+02 0.0000000000e+00 0.0000e+00 -1.0000e+00
       22  1    1    2    0    0 +1.2424334578e+03 -2.0818293581e+03 -4.6803082136e+03 5.2709524137e+03 0.0000000000e+00 0.0000e+00 1.0000e+00
</event>
<event>
 6      1 +1.4834189e-01 1.00593000e+04 7.81653100e-03 6.93515700e-02
  1000022 -1    0    0    0    0 +0.0000000000e+00 +0.0000000000e+00 +4.4721471353e+01 1.0000100000e+04 1.0000000000e+04 0.0000e+00 -1.0000e+00
  1000022 -1    0    0    0    0 -0.0000000000e+00 -0.0000000000e+00 -4.4721471353e+01 1.0000100000e+04 1.0000000000e+04 0.0000e+00 -1.0000e+00
      -24  1    1    2    0    0 -2.7221179476e+03 -1.5402005628e+03 +1.3303112758e+03 3.3997418514e+03 7.9829010000e+01 0.0000e+00 0.0000e+00
       24  1    1    2    0    0 +6.8075019994e+02 -4.8268992576e+01 -3.1210457650e+02 7.5467388180e+02 7.9829010000e+01 0.0000e+00 -1.0000e+00
       22  1    1    2    0    0 +7.2298485729e+03 +4.6026970483e+03 -3.6222205297e+03 9.3046231558e+03 0.0000000000e+00 0.0000e+00 1.0000e+00
       22  1    1    2    0    0 -5.1884808252e+03 -3.0142274929e+03 +2.6040138303e+03 6.5411611111e+03 0.0000000000e+00 0.0000e+00 1.0000e+00
</event>
<event>
 6      1 +1.4834189e-01 1.00091500e+04 7.81653100e-03 6.93817300e-02
  1000022 -1    0    0    0    0 +0.0000000000e+00 +0.0000000000e+00 +4.4721471353e+01 1.0000100000e+04 1.0000000000e+04 0.0000e+00 1.0000e+00
  1000022 -1    0    0    0    0 -0.0000000000e+00 -0.0000000000e+00 -4.4721471353e+01 1.0000100000e+04 1.0000000000e+04 0.0000e+00 1.0000e+00
      -24  1    1    2    0    0 +5.3421002334e+03 -8.1688833023e+03 -1.8126549183e+03 9.9277781922e+03 7.9829010000e+01 0.0000e+00 1.0000e+00
       24  1    1    2    0    0 -5.3807860835e+03 +8.1367414061e+03 +1.7946389923e+03 9.9189980023e+03 7.9829010000e+01 0.0000e+00 1.0000e+00
       22  1    1    2    0    0 +5.4105304580e+00 +8.4085608484e+01 +3.2068238663e+01 9.0155617268e+01 0.0000000000e+00 0.0000e+00 -1.0000e+00
       22  1    1    2    0    0 +3.3275319580e+01 -5.1943712357e+01 -1.4052312673e+01 6.3268188200e+01 0.0000000000e+00 0.0000e+00 1.0000e+00
</event>
<event>
 6      1 +1.4834189e-01 1.00001800e+04 7.81653100e-03 6.93871500e-02
  1000022 -1    0    0    0    0 +0.0000000000e+00 +0.0000000000e+00 +4.4721471353e+01 1.0000100000e+04 1.0000000000e+04 0.0000e+00 1.0000e+00
  1000022 -1    0    0    0    0 -0.0000000000e+00 -0.0000000000e+00 -4.4721471353e+01 1.0000100000e+04 1.0000000000e+04 0.0000e+00 1.0000e+00
      -24  1    1    2    0    0 +4.0947377334e+03 +8.4434868030e+03 -3.3418949562e+03 9.9616254229e+03 7.9829010000e+01 0.0000e+00 1.0000e+00
       24  1    1    2    0    0 -3.9897558636e+03 -8.2719943325e+03 +3.2547432513e+03 9.7439092971e+03 7.9829010000e+01 0.0000e+00 1.0000e+00
       22  1    1    2    0    0 -1.1565322133e+02 -2.0693204610e+02 +9.7359350389e+01 2.5627208669e+02 0.0000000000e+00 0.0000e+00 -1.0000e+00
       22  1    1    2    0    0 +1.0671351532e+01 +3.5439575611e+01 -1.0207645491e+01 3.8393193271e+01 0.0000000000e+00 0.0000e+00 -1.0000e+00
</event>
<event>
 6      1 +1.4834189e-01 1.01346000e+04 7.81653100e-03 6.93066200e-02
  1000022 -1    0    0    0    0 +0.0000000000e+00 +0.0000000000e+00 +4.4721471353e+01 1.0000100000e+04 1.0000000000e+04 0.0000e+00 1.0000e+00
  1000022 -1    0    0    0    0 -0.0000000000e+00 -0.0000000000e+00 -4.4721471353e+01 1.0000100000e+04 1.0000000000e+04 0.0000e+00 1.0000e+00
      -24  1    1    2    0    0 +9.4237928680e+02 +9.0278311735e+03 -3.5354070000e+03 9.7414213411e+03 7.9829010000e+01 0.0000e+00 -1.0000e+00
       24  1    1    2    0    0 +2.7274214219e+01 -3.8521503919e+02 +2.6123542654e+02 4.7302339064e+02 7.9829010000e+01 0.0000e+00 -1.0000e+00
       22  1    1    2    0    0 -1.1116803058e+03 -8.5882851921e+03 +3.6367556067e+03 9.3925750987e+03 0.0000000000e+00 0.0000e+00 -1.0000e+00
       22  1    1    2    0    0 +1.4202680474e+02 -5.4330942263e+01 -3.6258403327e+02 3.9318016956e+02 0.0000000000e+00 0.0000e+00 -1.0000e+00
</event>
<event>
 6      1 +1.4834189e-01 1.16459700e+04 7.81653100e-03 6.84793700e-02
  1000022 -1    0    0    0    0 +0.0000000000e+00 +0.0000000000e+00 +4.4721471353e+01 1.0000100000e+04 1.0000000000e+04 0.0000e+00 1.0000e+00
  1000022 -1    0    0    0    0 -0.0000000000e+00 -0.0000000000e+00 -4.4721471353e+01 1.0000100000e+04 1.0000000000e+04 0.0000e+00 1.0000e+00
      -24  1    1    2    0    0 -1.1875965552e+03 +2.8232085520e+03 -7.4970102475e+03 8.0989152007e+03 7.9829010000e+01 0.0000e+00 -1.0000e+00
       24  1    1    2    0    0 -2.2065100167e+03 -3.4999417045e+03 +7.2573067082e+03 8.3542295705e+03 7.9829010000e+01 0.0000e+00 -1.0000e+00
       22  1    1    2    0    0 +3.4033080410e+03 +6.5176373036e+02 +3.0301471127e+02 3.4783788605e+03 0.0000000000e+00 0.0000e+00 -1.0000e+00
       22  1    1    2    0    0 -9.2014690520e+00 +2.4969422136e+01 -6.3311171942e+01 6.8676368332e+01 0.0000000000e+00 0.0000e+00 1.0000e+00
</event>
<event>
 6      1 +1.4834189e-01 9.58728900e+03 7.81653100e-03 6.96427000e-02
  1000022 -1    0    0    0    0 +0.0000000000e+00 +0.0000000000e+00 +4.4721471353e+01 1.0000100000e+04 1.0000000000e+04 0.0000e+00 -1.0000e+00
  1000022 -1    0    0    0    0 -0.0000000000e+00 -0.0000000000e+00 -4.4721471353e+01 1.0000100000e+04 1.0000000000e+04 0.0000e+00 -1.0000e+00
      -24  1    1    2    0    0 -6.8573438869e+02 -8.4274196353e+01 -3.9029990099e+02 7.9752145774e+02 7.9829010000e+01 0.0000e+00 -1.0000e+00
       24  1    1    2    0    0 -2.6759942935e+03 -1.8363686154e+03 +9.0987858929e+03 9.6606145015e+03 7.9829010000e+01 0.0000e+00 -1.0000e+00
       22  1    1    2    0    0 +3.3725069971e+03 +1.9183337830e+03 -8.7049704477e+03 9.5304941343e+03 0.0000000000e+00 0.0000e+00 -1.0000e+00
       22  1    1    2    0    0 -1.0778314842e+01 +2.3090286935e+00 -3.5155442625e+00 1.1569906474e+01 0.0000000000e+00 0.0000e+00 -1.0000e+00
</event>
<event>
 6      1 +1.4834189e-01 1.00104100e+04 7.81653100e-03 6.93809700e-02
  1000022 -1    0    0    0    0 +0.0000000000e+00 +0.0000000000e+00 +4.4721471353e+01 1.0000100000e+04 1.0000000000e+04 0.0000e+00 1.0000e+00
  1000022 -1    0    0    0    0 -0.0000000000e+00 -0.0000000000e+00 -4.4721471353e+01 1.0000100000e+04 1.0000000000e+04 0.0000e+00 1.0000e+00
      -24  1    1    2    0    0 -8.3179458935e+03 -3.5130991497e+03 +3.8417716518e+03 9.8130358003e+03 7.9829010000e+01 0.0000e+00 -1.0000e+00
       24  1    1    2    0    0 +7.2374677592e+03 +3.1423039066e+03 -3.2545601677e+03 8.5354289853e+03 7.9829010000e+01 0.0000e+00 -1.0000e+00
       22  1    1    2    0    0 +1.2504465621e+03 +4.7035694976e+02 -5.7472136381e+02 1.4543579033e+03 0.0000000000e+00 0.0000e+00 -1.0000e+00
       22  1    1    2    0    0 -1.6996842772e+02 -9.9561706657e+01 -1.2490120277e+01 1.9737731116e+02 0.0000000000e+00 0.0000e+00 1.0000e+00
</event>
<event>
 6      1 +1.4834189e-01 1.00024700e+04 7.81653100e-03 6.93857600e-02
  1000022 -1    0    0    0    0 +0.0000000000e+00 +0.0000000000e+00 +4.4721471353e+01 1.0000100000e+04 1.0000000000e+04 0.0000e+00 -1.0000e+00
  1000022 -1    0    0    0    0 -0.0000000000e+00 -0.0000000000e+00 -4.4721471353e+01 1.0000100000e+04 1.0000000000e+04 0.0000e+00 -1.0000e+00
      -24  1    1    2    0    0 +4.9211048495e+03 -5.5457269284e+03 -6.6737981222e+03 9.9758866348e+03 7.9829010000e+01 0.0000e+00 -1.0000e+00
       24  1    1    2    0    0 -4.4711653045e+02 +5.4371061787e+02 +7.0639722121e+02 1.0004519642e+03 7.9829010000e+01 0.0000e+00 0.0000e+00
       22  1    1    2    0    0 -4.4865473183e+03 +5.0120933757e+03 +5.9821564473e+03 9.0020210289e+03 0.0000000000e+00 0.0000e+00 -1.0000e+00
       22  1    1    2    0    0 +1.2558999192e+01 -1.0077065143e+01 -1.4755546307e+01 2.1840372007e+01 0.0000000000e+00 0.0000e+00 1.0000e+00
</event>
<event>
 6      1 +1.4834189e-01 1.00160400e+04 7.81653100e-03 6.93775800e-02
  1000022 -1    0    0    0    0 +0.0000000000e+00 +0.0000000000e+00 +4.4721471353e+01 1.0000100000e+04 1.0000000000e+04 0.0000e+00 -1.0000e+00
  1000022 -1    0    0    0    0 -0.0000000000e+00 -0.0000000000e+00 -4.4721471353e+01 1.0000100000e+04 1.0000000000e+04 0.0000e+00 -1.0000e+00
      -24  1    1    2    0    0 +1.9209174920e+02 -5.0789707431e+01 +1.4771676204e+02 2.6013793863e+02 7.9829010000e+01 0.0000e+00 -1.0000e+00
       24  1    1    2    0    0 -9.1943071135e+03 +1.2149718095e+03 -2.2820923829e+03 9.5512176245e+03 7.9829010000e+01 0.0000e+00 1.0000e+00
       22  1    1    2    0    0 -4.0571287946e+02 +7.2580422668e+01 -1.3254519190e+02 4.3294235900e+02 0.0000000000e+00 0.0000e+00 1.0000e+00
       22  1    1    2    0    0 +9.4079282438e+03 -1.2367625247e+03 +2.2669208128e+03 9.7559020779e+03 0.0000000000e+00 0.0000e+00 1.0000e+00
</event>
<event>
 6      1 +1.4834189e-01 1.03087800e+04 7.81653100e-03 6.92041100e-02
  1000022 -1    0    0    0    0 +0.0000000000e+00 +0.0000000000e+00 +4.4721471353e+01 1.0000100000e+04 1.0000000000e+04 0.0000e+00 -1.0000e+00
  1000022 -1    0    0    0    0 -0.0000000000e+00 -0.0000000000e+00 -4.4721471353e+01 1.0000100000e+04 1.0000000000e+04 0.0000e+00 -1.0000e+00
      -24  1    1    2    0    0 -7.3543539682e+03 +4.9110526389e+03 +3.6396886040e+03 9.5634024340e+03 7.9829010000e+01 0.0000e+00 1.0000e+00
       24  1    1    2    0    0 +7.7668309608e+03 -4.6252900898e+03 -3.0510996473e+03 9.5410981191e+03 7.9829010000e+01 0.0000e+00 1.0000e+00
       22  1    1    2    0    0 -4.7861022339e+02 -1.5653785174e+02 -5.4956499112e+02 7.4538146236e+02 0.0000000000e+00 0.0000e+00 1.0000e+00
       22  1    1    2    0    0 +6.6133230761e+01 -1.2922469727e+02 -3.9023965515e+01 1.5031798455e+02 0.0000000000e+00 0.0000e+00 1.0000e+00
</event>
<event>
 6      1 +1.4834189e-01 1.00321400e+04 7.81653100e-03 6.93678800e-02
  1000022 -1    0    0    0    0 +0.0000000000e+00 +0.0000000000e+00 +4.4721471353e+01 1.0000100000e+04 1.0000000000e+04 0.0000e+00 -1.0000e+00
  1000022 -1    0    0    0    0 -0.0000000000e+00 -0.0000000000e+00 -4.4721471353e+01 1.0000100000e+04 1.0000000000e+04 0.0000e+00 -1.0000e+00
      -24  1    1    2    0    0 +5.7204749732e+03 +5.4860546474e+03 -4.4008432959e+03 9.0661140462e+03 7.9829010000e+01 0.0000e+00 -1.0000e+00
       24  1    1    2    0    0 -2.6274953497e+02 -6.4151835688e+02 +4.8535112103e+02 8.5001264806e+02 7.9829010000e+01 0.0000e+00 -1.0000e+00
       22  1    1    2    0    0 -6.0104618812e+03 -5.4081053784e+03 +4.3518107559e+03 9.1821300723e+03 0.0000000000e+00 0.0000e+00 -1.0000e+00
       22  1    1    2    0    0 +5.5273644294e+02 +5.6356908795e+02 -4.3631858107e+02 9.0194323349e+02 0.0000000000e+00 0.0000e+00 -1.0000e+00
</event>
<event>
 6      1 +1.4834189e-01 9.60832300e+03 7.81653100e-03 6.96293700e-02
  1000022 -1    0    0    0    0 +0.0000000000e+00 +0.0000000000e+00 +4.4721471353e+01 1.0000100000e+04 1.0000000000e+04 0.0000e+00 -1.0000e+00
  1000022 -1    0    0    0    0 -0.0000000000e+00 -0.0000000000e+00 -4.4721471353e+01 1.0000100000e+04 1.0000000000e+04 0.0000e+00 -1.0000e+00
      -24  1    1    2    0    0 +2.7206049804e+01 -2.0461360734e+02 +2.4084440136e+02 3.2708652366e+02 7.9829010000e+01 0.0000e+00 0.0000e+00
       24  1    1    2    0    0 -1.6676155203e+02 -7.7543783087e+02 +3.5673006488e+02 8.7335116351e+02 7.9829010000e+01 0.0000e+00 1.0000e+00
       22  1    1    2    0    0 +7.2158020275e+03 -2.9550041609e+03 +4.7183247157e+03 9.1138595894e+03 0.0000000000e+00 0.0000e+00 1.0000e+00
       22  1    1    2    0    0 -7.0762465253e+03 +3.9350555992e+03 -5.3158991820e+03 9.6859027235e+03 0.0000000000e+00 0.0000e+00 1.0000e+00
</event>
<event>
 6      1 +1.4834189e-01 1.00091400e+04 7.81653100e-03 6.93817400e-02
  1000022 -1    0    0    0    0 +0.0000000000e+00 +0.0000000000e+00 +4.4721471353e+01 1.0000100000e+04 1.0000000000e+04 0.0000e+00 1.0000e+00
  1000022 -1    0    0    0    0 -0.0000000000e+00 -0.0000000000e+00 -4.4721471353e+01 1.0000100000e+04 1.0000000000e+04 0.0000e+00 1.0000e+00
      -24  1    1    2    0    0 -8.7420699860e+03 +1.7845656691e+03 +1.1383085460e+03 8.9950309218e+03 7.9829010000e+01 0.0000e+00 1.0000e+00
       24  1    1    2    0    0 +5.2925432124e+03 -1.2832151156e+03 -9.2070228966e+02 5.5237414915e+03 7.9829010000e+01 0.0000e+00 1.0000e+00
       22  1    1    2    0    0 +4.4200955213e+03 -6.6948188988e+02 -3.6522920204e+02 4.4854033027e+03 0.0000000000e+00 0.0000e+00 1.0000e+00
       22  1    1    2    0    0 -9.7056874765e+02 +1.6813133641e+02 +1.4762294568e+02 9.9602428399e+02 0.0000000000e+00 0.0000e+00 -1.0000e+00
</event>
<event>
 6      1 +1.4834189e-01 1.00045000e+04 7.81653100e-03 6.93845400e-02
  1000022 -1    0    0    0    0 +0.0000000000e+00 +0.0000000000e+00 +4.4721471353e+01 1.0000100000e+04 1.0000000000e+04 0.0000e+00 -1.0000e+00
  1000022 -1    0    0    0    0 -0.0000000000e+00 -0.0000000000e+00 -4.4721471353e+01 1.0000100000e+04 1.0000000000e+04 0.0000e+00 -1.0000e+00
      -24  1    1    2    0    0 +1.3378366290e+03 -5.4143155545e+03 -8.0958878735e+03 9.8312966032e+03 7.9829010000e+01 0.0000e+00 1.0000e+00
       24  1    1    2    0    0 -2.8361439277e+02 +1.0404591122e+03 +1.5783606130e+03 1.9132661037e+03 7.9829010000e+01 0.0000e+00 0.0000e+00
       22  1    1    2    0    0 -1.1343893508e+03 +4.4522619864e+03 +6.6495313936e+03 8.0824342712e+03 0.0000000000e+00 0.0000e+00 1.0000e+00
       22  1    1    2    0    0 +8.0167114551e+01 -7.8405544153e+01 -1.3200413315e+02 1.7320302185e+02 0.0000000000e+00 0.0000e+00 -1.0000e+00
</event>
<event>
 6      1 +1.4834189e-01 1.00010100e+04 7.81653100e-03 6.93866400e-02
  1000022 -1    0    0    0    0 +0.0000000000e+00 +0.0000000000e+00 +4.4721471353e+01 1.0000100000e+04 1.0000000000e+04 0.0000e+00 1.0000e+00
  1000022 -1    0    0    0    0 -0.0000000000e+00 -0.0000000000e+00 -4.4721471353e+01 1.0000100000e+04 1.0000000000e+04 0.0000e+00 1.0000e+00
      -24  1    1    2    0    0 +8.8595652627e+03 +4.2295353782e+03 +1.8209331022e+03 9.9851407698e+03 7.9829010000e+01 0.0000e+00 -1.0000e+00
       24  1    1    2    0    0 -1.8410024825e+03 -8.3021144789e+02 -3.8088195161e+02 2.0566927142e+03 7.9829010000e+01 0.0000e+00 -1.0000e+00
       22  1    1    2    0    0 +1.2174925631e+01 +6.5454319870e+00 +2.5066632404e+00 1.4048304333e+01 0.0000000000e+00 0.0000e+00 1.0000e+00
       22  1    1    2    0    0 -7.0307377059e+03 -3.4058693622e+03 -1.4425578138e+03 7.9443182116e+03 0.0000000000e+00 0.0000e+00 1.0000e+00
</event>
<event>
 6      1 +1.4834189e-01 9.62804200e+03 7.81653100e-03 6.96169100e-02
  1000022 -1    0    0    0    0 +0.0000000000e+00 +0.0000000000e+00 +4.4721471353e+01 1.0000100000e+04 1.0000000000e+04 0.0000e+00 1.0000e+00
  1000022 -1    0    0    0    0 -0.0000000000e+00 -0.0000000000e+00 -4.4721471353e+01 1.0000100000e+04 1.0000000000e+04 0.0000e+00 1.0000e+00
      -24  1    1    2    0    0 +3.3763985516e+02 +1.8927266614e+02 -6.1754881316e+02 7.3318757588e+02 7.9829010000e+01 0.0000e+00 1.0000e+00
       24  1    1    2    0    0 +4.5950302804e+02 +2.8359468361e+03 +2.2970778907e+03 3.6792223359e+03 7.9829010000e+01 0.0000e+00 -1.0000e+00
       22  1    1    2    0    0 +7.0140418629e+02 +4.8080572838e+03 +3.5790878622e+03 6.0348365845e+03 0.0000000000e+00 0.0000e+00 -1.0000e+00
       22  1    1    2    0    0 -1.4985470695e+03 -7.8332767860e+03 -5.2586169398e+03 9.5529535037e+03 0.0000000000e+00 0.0000e+00 -1.0000e+00
</event>
<event>
 6      1 +1.4834189e-01 1.00092300e+04 7.81653100e-03 6.93816900e-02
  1000022 -1    0    0    0    0 +0.0000000000e+00 +0.0000000000e+00 +4.4721471353e+01 1.0000100000e+04 1.0000000000e+04 0.0000e+00 -1.0000e+00
  1000022 -1    0    0    0    0 -0.0000000000e+00 -0.0000000000e+00 -4.4721471353e+01 1.0000100000e+04 1.0000000000e+04 0.0000e+00 -1.0000e+00
      -24  1    1    2    0    0 +2.5496151012e+03 +8.8996369731e+03 -1.6594094023e+03 9.4055349477e+03 7.9829010000e+01 0.0000e+00 -1.0000e+00
       24  1    1    2    0    0 -2.5832055804e+03 -9.1583009568e+03 +1.7752486327e+03 9.6801501985e+03 7.9829010000e+01 0.0000e+00 -1.0000e+00
       22  1    1    2    0    0 +1.4230417974e+02 +5.6451528839e+02 -6.1741493223e+01 5.8544000751e+02 0.0000000000e+00 0.0000e+00 -1.0000e+00
       22  1    1    2    0    0 -1.0871370051e+02 -3.0585130474e+02 -5.4097737204e+01 3.2907484629e+02 0.0000000000e+00 0.0000e+00 -1.0000e+00
</event>
<event>
 6      1 +1.4834189e-01 1.00382600e+04 7.81653100e-03 6.93642000e-02
  1000022 -1    0    0    0    0 +0.0000000000e+00 +0.0000000000e+00 +4.4721471353e+01 1.0000100000e+04 1.0000000000e+04 0.0000e+00 -1.0000e+00
  1000022 -1    0    0    0    0 -0.0000000000e+00 -0.0000000000e+00 -4.4721471353e+01 1.0000100000e+04 1.0000000000e+04 0.0000e+00 -1.0000e+00
      -24  1    1    2    0    0 +4.9069652020e+03 +6.5938490698e+03 +5.4331751288e+03 9.8530664110e+03 7.9829010000e+01 0.0000e+00 -1.0000e+00
       24  1    1    2    0    0 -1.2411402930e+02 +1.1349878279e+01 -4.3222827518e+01 1.5418818263e+02 7.9829010000e+01 0.0000e+00 -1.0000e+00
       22  1    1    2    0    0 -4.8340441679e+03 -6.6777977590e+03 -5.4528895830e+03 9.8840766251e+03 0.0000000000e+00 0.0000e+00 -1.0000e+00
       22  1    1    2    0    0 +5.1192995214e+01 +7.2598810934e+01 +6.2937281654e+01 1.0886878125e+02 0.0000000000e+00 0.0000e+00 1.0000e+00
</event>
<event>
 6      1 +1.4834189e-01 1.00281700e+04 7.81653100e-03 6.93702700e-02
  1000022 -1    0    0    0    0 +0.0000000000e+00 +0.0000000000e+00 +4.4721471353e+01 1.0000100000e+04 1.0000000000e+04 0.0000e+00 1.0000e+00
  1000022 -1    0    0    0    0 -0.0000000000e+00 -0.0000000000e+00 -4.4721471353e+01 1.0000100000e+04 1.0000000000e+04 0.0000e+00 1.0000e+00
      -24  1    1    2    0    0 +5.6128455195e+03 +3.8242059759e+03 -4.2989619767e+03 8.0384098502e+03 7.9829010000e+01 0.0000e+00 1.0000e+00
       24  1    1    2    0    0 -7.2623343753e+03 -4.5479977372e+03 +5.0999242293e+03 9.9720300747e+03 7.9829010000e+01 0.0000e+00 1.0000e+00
       22  1    1    2    0    0 +1.6221370787e+03 +6.9995039202e+02 -8.2117404327e+02 1.9482263890e+03 0.0000000000e+00 0.0000e+00 1.0000e+00
       22  1    1    2    0    0 +2.7351777023e+01 +2.3841369242e+01 +2.0211790704e+01 4.1533686053e+01 0.0000000000e+00 0.0000e+00 1.0000e+00
</event>
<event>
 6      1 +1.4834189e-01 1.00122500e+04 7.81653100e-03 6.93798600e-02
  1000022 -1    0    0    0    0 +0.0000000000e+00 +0.0000000000e+00 +4.4721471353e+01 1.0000100000e+04 1.0000000000e+04 0.0000e+00 -1.0000e+00
  1000022 -1    0    0    0    0 -0.0000000000e+00 -0.0000000000e+00 -4.4721471353e+01 1.0000100000e+04 1.0000000000e+04 0.0000e+00 -1.0000e+00
      -24  1    1    2    0    0 +4.5759047720e+03 +6.6559543539e+03 -5.5613317106e+03 9.8069065413e+03 7.9829010000e+01 0.0000e+00 1.0000e+00
       24  1    1    2    0    0 -4.2319418553e+03 -5.8517999031e+03 +4.7688493307e+03 8.6545473932e+03 7.9829010000e+01 0.0000e+00 1.0000e+00
       22  1    1    2    0    0 -4.3021276869e+02 -9.2630347512e+02 +8.9455357385e+02 1.3576992490e+03 0.0000000000e+00 0.0000e+00 1.0000e+00
       22  1    1    2    0    0 +8.6249851986e+01 +1.2214902430e+02 -1.0207119393e+02 1.8104681642e+02 0.0000000000e+00 0.0000e+00 1.0000e+00
</event>
<event>
 6      1 +1.4834189e-01 1.00041300e+04 7.81653100e-03 6.93847600e-02
  1000022 -1    0    0    0    0 +0.0000000000e+00 +0.0000000000e+00 +4.4721471353e+01 1.0000100000e+04 1.0000000000e+04 0.0000e+00 1.0000e+00
  1000022 -1    0    0    0    0 -0.0000000000e+00 -0.0000000000e+00 -4.4721471353e+01 1.0000100000e+04 1.0000000000e+04 0.0000e+00 1.0000e+00
      -24  1    1    2    0    0 -3.2821281856e+03 -5.6862457524e+03 -7.0515248767e+03 9.6351508520e+03 7.9829010000e+01 0.0000e+00 -1.0000e+00
       24  1    1    2    0    0 +3.1015111962e+03 +4.9354664222e+03 +6.3676066705e+03 8.6331331442e+03 7.9829010000e+01 0.0000e+00 -1.0000e+00
       22  1    1    2    0    0 +2.8732065738e+02 +8.9713995634e+02 +9.9609920083e+02 1.3709948502e+03 0.0000000000e+00 0.0000e+00 -1.0000e+00
       22  1    1    2    0    0 -1.0670366798e+02 -1.4636062615e+02 -3.1218099468e+02 3.6092115356e+02 0.0000000000e+00 0.0000e+00 -1.0000e+00
</event>
<event>
 6      1 +1.4834189e-01 1.00079900e+04 7.81653100e-03 6.93824300e-02
  1000022 -1    0    0    0    0 +0.0000000000e+00 +0.0000000000e+00 +4.4721471353e+01 1.0000100000e+04 1.0000000000e+04 0.0000e+00 -1.0000e+00
  1000022 -1    0    0    0    0 -0.0000000000e+00 -0.0000000000e+00 -4.4721471353e+01 1.0000100000e+04 1.0000000000e+04 0.0000e+00 -1.0000e+00
      -24  1    1    2    0    0 -5.7638984730e+03 +3.2300014943e+02 -7.9512120210e+03 9.8262403786e+03 7.9829010000e+01 0.0000e+00 -1.0000e+00
       24  1    1    2    0    0 +5.8521419797e+03 -3.0389775894e+02 +8.0897734870e+03 9.9895308869e+03 7.9829010000e+01 0.0000e+00 -1.0000e+00
       22  1    1    2    0    0 +1.4759455495e+01 +3.7311027421e+00 -1.0444816941e+01 1.8462309041e+01 0.0000000000e+00 0.0000e+00 -1.0000e+00
       22  1    1    2    0    0 -1.0300296215e+02 -2.2833493232e+01 -1.2811664909e+02 1.6596642552e+02 0.0000000000e+00 0.0000e+00 1.0000e+00
</event>
<event>
 6      1 +1.4834189e-01 1.00106900e+04 7.81653100e-03 6.93808000e-02
  1000022 -1    0    0    0    0 +0.0000000000e+00 +0.0000000000e+00 +4.4721471353e+01 1.0000100000e+04 1.0000000000e+04 0.0000e+00 -1.0000e+00
  1000022 -1    0    0    0    0 -0.0000000000e+00 -0.0000000000e+00 -4.4721471353e+01 1.0000100000e+04 1.0000000000e+04 0.0000e+00 -1.0000e+00
      -24  1    1    2    0    0 -1.9643982137e+01 -8.1895298323e+03 +5.7197185730e+03 9.9895113987e+03 7.9829010000e+01 0.0000e+00 -1.0000e+00
       24  1    1    2    0    0 -2.4659539081e+02 +4.4332109308e+03 -3.1737824489e+03 5.4583363901e+03 7.9829010000e+01 0.0000e+00 -1.0000e+00
       22  1    1    2    0    0 +6.0556084062e+00 +8.5558429187e+00 +4.7321810078e+00 1.1500712078e+01 0.0000000000e+00 0.0000e+00 -1.0000e+00
       22  1    1    2    0    0 +2.6018376454e+02 +3.7477630586e+03 -2.5506683051e+03 4.5408514992e+03 0.0000000000e+00 0.0000e+00 -1.0000e+00
</event>
<event>
 6      1 +1.4834189e-01 1.02600800e+04 7.81653100e-03 6.92325700e-02
  1000022 -1    0    0    0    0 +0.0000000000e+00 +0.0000000000e+00 +4.4721471353e+01 1.0000100000e+04 1.0000000000e+04 0.0000e+00 -1.0000e+00
  1000022 -1    0    0    0    0 -0.0000000000e+00 -0.0000000000e+00 -4.4721471353e+01 1.0000100000e+04 1.0000000000e+04 0.0000e+00 -1.0000e+00
      -24  1    1    2    0    0 -8.3517342793e+03 +4.4216604147e+03 +2.3581774571e+03 9.7401190899e+03 7.9829010000e+01 0.0000e+00 -1.0000e+00
       24  1    1    2    0    0 +1.7514639981e+03 +1.4991687762e+02 +3.0788953622e+02 1.7864125627e+03 7.9829010000e+01 0.0000e+00 -1.0000e+00
       22  1    1    2    0    0 +6.5648628209e+03 -4.5753514254e+03 -2.6745027690e+03 8.4370747054e+03 0.0000000000e+00 0.0000e+00 -1.0000e+00
       22  1    1    2    0    0 +3.5407460275e+01 +3.7741331184e+00 +8.4357756702e+00 3.6593642004e+01 0.0000000000e+00 0.0000e+00 -1.0000e+00
</event>
<event>
 6      1 +1.4834189e-01 1.00001000e+04 7.81653100e-03 6.93871900e-02
  1000022 -1    0    0    0    0 +0.0000000000e+00 +0.0000000000e+00 +4.4721471353e+01 1.0000100000e+04 1.0000000000e+04 0.0000e+00 -1.0000e+00
  1000022 -1    0    0    0    0 -0.0000000000e+00 -0.0000000000e+00 -4.4721471353e+01 1.0000100000e+04 1.0000000000e+04 0.0000e+00 -1.0000e+00
      -24  1    1    2    0    0 -4.7733944652e+03 +7.8655215683e+03 -7.7370297186e+02 9.2334561904e+03 7.9829010000e+01 0.0000e+00 -1.0000e+00
       24  1    1    2    0    0 +5.1742128968e+03 -8.4826161283e+03 +8.3235324943e+02 9.9712807644e+03 7.9829010000e+01 0.0000e+00 -1.0000e+00
       22  1    1    2    0    0 +1.2623211873e+01 -2.5333244304e+01 +5.3999728921e+00 2.8814552785e+01 0.0000000000e+00 0.0000e+00 1.0000e+00
       22  1    1    2    0    0 -4.1344164343e+02 +6.4242780430e+02 -6.4050250460e+01 7.6664849236e+02 0.0000000000e+00 0.0000e+00 -1.0000e+00
</event>
<event>
 6      1 +1.4834189e-01 1.00030900e+04 7.81653100e-03 6.93853900e-02
  1000022 -1    0    0    0    0 +0.0000000000e+00 +0.0000000000e+00 +4.4721471353e+01 1.0000100000e+04 1.0000000000e+04 0.0000e+00 1.0000e+00
  1000022 -1    0    0    0    0 -0.0000000000e+00 -0.0000000000e+00 -4.4721471353e+01 1.0000100000e+04 1.0000000000e+04 0.0000e+00 1.0000e+00
      -24  1    1    2    0    0 +1.5305994866e+03 -3.0276589837e+03 +9.3046135466e+03 9.9041233652e+03 7.9829010000e+01 0.0000e+00 -1.0000e+00
       24  1    1    2    0    0 -1.5994162603e+03 +2.9699431869e+03 -9.3621180243e+03 9.9515989408e+03 7.9829010000e+01 0.0000e+00 -1.0000e+00
       22  1    1    2    0    0 -8.6916501399e+00 +5.0309362874e+01 +6.6643941988e+00 5.1487774520e+01 0.0000000000e+00 0.0000e+00 1.0000e+00
       22  1    1    2    0    0 +7.7508423827e+01 +7.4064339241e+00 +5.0840083505e+01 9.2989919445e+01 0.0000000000e+00 0.0000e+00 -1.0000e+00
</event>
<event>
 6      1 +1.4834189e-01 8.11887100e+03 7.81653100e-03 7.06691700e-02
  1000022 -1    0    0    0    0 +0.0000000000e+00 +0.0000000000e+00 +4.4721471353e+01 1.0000100000e+04 1.0000000000e+04 0.0000e+00 -1.0000e+00
  1000022 -1    0    0    0    0 -0.0000000000e+00 -0.0000000000e+00 -4.4721471353e+01 1.0000100000e+04 1.0000000000e+04 0.0000e+00 -1.0000e+00
      -24  1    1    2    0    0 -1.4776695614e+00 +3.6601993781e+02 +9.4750657992e+01 3.8642351948e+02 7.9829010000e+01 0.0000e+00 -1.0000e+00
       24  1    1    2    0    0 +3.8405430820e+03 -7.9002596965e+03 -1.2780574615e+03 8.8771435712e+03 7.9829010000e+01 0.0000e+00 -1.0000e+00
       22  1    1    2    0    0 +1.8290452786e+03 +2.3597103142e+03 +5.4892746627e+02 3.0356153843e+03 0.0000000000e+00 0.0000e+00 -1.0000e+00
       22  1    1    2    0    0 -5.6681106910e+03 +5.1745294446e+03 +6.3437933719e+02 7.7010175251e+03 0.0000000000e+00 0.0000e+00 -1.0000e+00
</event>
<event>
 6      1 +1.4834189e-01 1.04755800e+04 7.81653100e-03 6.91078500e-02
  1000022 -1    0    0    0    0 +0.0000000000e+00 +0.0000000000e+00 +4.4721471353e+01 1.0000100000e+04 1.0000000000e+04 0.0000e+00 -1.0000e+00
  1000022 -1    0    0    0    0 -0.0000000000e+00 -0.0000000000e+00 -4.4721471353e+01 1.0000100000e+04 1.0000000000e+04 0.0000e+00 -1.0000e+00
      -24  1    1    2    0    0 -4.4372418538e+03 -3.1280057700e+03 +7.7200147407e+02 5.4841493701e+03 7.9829010000e+01 0.0000e+00 -1.0000e+00
       24  1    1    2    0    0 +5.4596086547e+03 +6.5688790695e+03 +1.4809139599e+03 8.6693124133e+03 7.9829010000e+01 0.0000e+00 -1.0000e+00
       22  1    1    2    0    0 +5.4902920530e+02 +6.3584834186e+02 +1.6067605014e+02 8.5530870171e+02 0.0000000000e+00 0.0000e+00 1.0000e+00
       22  1    1    2    0    0 -1.5713960061e+03 -4.0767216414e+03 -2.4135914841e+03 4.9914295149e+03 0.0000000000e+00 0.0000e+00 1.0000e+00
</event>
<event>
 6      1 +1.4834189e-01 1.00065300e+04 7.81653100e-03 6.93833100e-02
  1000022 -1    0    0    0    0 +0.0000000000e+00 +0.0000000000e+00 +4.4721471353e+01 1.0000100000e+04 1.0000000000e+04 0.0000e+00 1.0000e+00
  1000022 -1    0    0    0    0 -0.0000000000e+00 -0.0000000000e+00 -4.4721471353e+01 1.0000100000e+04 1.0000000000e+04 0.0000e+00 1.0000e+00
      -24  1    1    2    0    0 +4.1190966578e+03 +2.3903879601e+03 -7.0314451180e+03 8.4928502279e+03 7.9829010000e+01 0.0000e+00 -1.0000e+00
       24  1    1    2    0    0 -4.2387155815e+02 -3.5518848157e+02 +6.5608837174e+02 8.6177176655e+02 7.9829010000e+01 0.0000e+00 -1.0000e+00
       22  1    1    2    0    0 +7.0049935424e+02 +4.4663638589e+02 -1.2499105594e+03 1.5008197137e+03 0.0000000000e+00 0.0000e+00 1.0000e+00
       22  1    1    2    0    0 -4.3957244539e+03 -2.4818358644e+03 +7.6252673057e+03 9.1447582918e+03 0.0000000000e+00 0.0000e+00 -1.0000e+00
</event>
<event>
 6      1 +1.4834189e-01 1.02195500e+04 7.81653100e-03 6.92563700e-02
  1000022 -1    0    0    0    0 +0.0000000000e+00 +0.0000000000e+00 +4.4721471353e+01 1.0000100000e+04 1.0000000000e+04 0.0000e+00 1.0000e+00
  1000022 -1    0    0    0    0 -0.0000000000e+00 -0.0000000000e+00 -4.4721471353e+01 1.0000100000e+04 1.0000000000e+04 0.0000e+00 1.0000e+00
      -24  1    1    2    0    0 -4.1661783499e+02 +1.1226524932e+03 +2.5769981522e+03 2.8427471200e+03 7.9829010000e+01 0.0000e+00 -1.0000e+00
       24  1    1    2    0    0 +3.2933074920e+02 -7.4982536707e+03 -6.2085526648e+03 9.7408811570e+03 7.9829010000e+01 0.0000e+00 -1.0000e+00
       22  1    1    2    0    0 +8.6283950908e+01 +6.4055558184e+03 +3.6576884338e+03 7.3768065544e+03 0.0000000000e+00 0.0000e+00 -1.0000e+00
       22  1    1    2    0    0 +1.0031348830e+00 -2.9954640892e+01 -2.6133921249e+01 3.9765168558e+01 0.0000000000e+00 0.0000e+00 -1.0000e+00
</event>
<event>
 6      1 +1.4834189e-01 1.17574100e+04 7.81653100e-03 6.84234200e-02
  1000022 -1    0    0    0    0 +0.0000000000e+00 +0.0000000000e+00 +4.4721471353e+01 1.0000100000e+04 1.0000000000e+04 0.0000e+00 -1.0000e+00
  1000022 -1    0    0    0    0 -0.0000000000e+00 -0.0000000000e+00 -4.4721471353e+01 1.0000100000e+04 1.0000000000e+04 0.0000e+00 -1.0000e+00
      -24  1    1    2    0    0 -6.0633337765e+03 +2.4889385602e+03 +2.7770090211e+03 7.1187768202e+03 7.9829010000e+01 0.0000e+00 1.0000e+00
       24  1    1    2    0    0 +4.9132260722e+03 -1.3557560773e+02 -6.5953431681e+03 8.2257580416e+03 7.9829010000e+01 0.0000e+00 1.0000e+00
       22  1    1    2    0    0 +1.1398339846e+03 -2.3525110757e+03 +3.8318913917e+03 4.6386335824e+03 0.0000000000e+00 0.0000e+00 1.0000e+00
       22  1    1    2    0    0 +1.0273719690e+01 -8.5187674812e-01 -1.3557244666e+01 1.7031555806e+01 0.0000000000e+00 0.0000e+00 1.0000e+00
</event>
<event>
 6      1 +1.4834189e-01 1.00001900e+04 7.81653100e-03 6.93871400e-02
  1000022 -1    0    0    0    0 +0.0000000000e+00 +0.0000000000e+00 +4.4721471353e+01 1.0000100000e+04 1.0000000000e+04 0.0000e+00 1.0000e+00
  1000022 -1    0    0    0    0 -0.0000000000e+00 -0.0000000000e+00 -4.4721471353e+01 1.0000100000e+04 1.0000000000e+04 0.0000e+00 1.0000e+00
      -24  1    1    2    0    0 +9.3320157279e+03 -2.0772650851e+03 +2.7093644898e+03 9.9372318272e+03 7.9829010000e+01 0.0000e+00 1.0000e+00
       24  1    1    2    0    0 -8.4780268179e+03 +1.8466078617e+03 -2.4731388010e+03 9.0227317105e+03 7.9829010000e+01 0.0000e+00 1.0000e+00
       22  1    1    2    0    0 -9.0858440871e+02 +2.4680439346e+02 -2.6266802517e+02 9.7746228972e+02 0.0000000000e+00 0.0000e+00 -1.0000e+00
       22  1    1    2    0    0 +5.4595498743e+01 -1.6147170089e+01 +2.6442336359e+01 6.2774172531e+01 0.0000000000e+00 0.0000e+00 1.0000e+00
</event>
<event>
 6      1 +1.4834189e-01 1.00001500e+04 7.81653100e-03 6.93871700e-02
  1000022 -1    0    0    0    0 +0.0000000000e+00 +0.0000000000e+00 +4.4721471353e+01 1.0000100000e+04 1.0000000000e+04 0.0000e+00 -1.0000e+00
  1000022 -1    0    0    0    0 -0.0000000000e+00 -0.0000000000e+00 -4.4721471353e+01 1.0000100000e+04 1.0000000000e+04 0.0000e+00 -1.0000e+00
      -24  1    1    2    0    0 +5.2905074481e+02 -8.9904123391e+03 +4.1044657240e+02 9.0156667961e+03 7.9829010000e+01 0.0000e+00 1.0000e+00
       24  1    1    2    0    0 -5.6913958516e+02 +9.9410022205e+03 -4.5163454699e+02 9.9678378523e+03 7.9829010000e+01 0.0000e+00 1.0000e+00
       22  1    1    2    0    0 -3.1526759185e+00 +3.1760734328e+01 -5.0159056501e+00 3.2308557999e+01 0.0000000000e+00 0.0000e+00 -1.0000e+00
       22  1    1    2    0    0 +4.3241516273e+01 -9.8235061571e+02 +4.6203880236e+01 9.8438679363e+02 0.0000000000e+00 0.0000e+00 -1.0000e+00
</event>
<event>
 6      1 +1.4834189e-01 1.02903800e+04 7.81653100e-03 6.92148500e-02
  1000022 -1    0    0    0    0 +0.0000000000e+00 +0.0000000000e+00 +4.4721471353e+01 1.0000100000e+04 1.0000000000e+04 0.0000e+00 1.0000e+00
  1000022 -1    0    0    0    0 -0.0000000000e+00 -0.0000000000e+00 -4.4721471353e+01 1.0000100000e+04 1.0000000000e+04 0.0000e+00 1.0000e+00
      -24  1    1    2    0    0 +5.0281363286e+03 +8.2519271691e+03 -9.4750752922e+02 9.7098197785e+03 7.9829010000e+01 0.0000e+00 -1.0000e+00
       24  1    1    2    0    0 -4.7647675609e+03 -7.3462310425e+03 +1.7080967055e+03 8.9215518530e+03 7.9829010000e+01 0.0000e+00 -1.0000e+00
       22  1    1    2    0    0 -8.0089950535e+01 -7.4874480328e+02 -8.2709336537e+02 1.1185332430e+03 0.0000000000e+00 0.0000e+00 1.0000e+00
       22  1    1    2    0    0 -1.8327881715e+02 -1.5695132329e+02 +6.6504189113e+01 2.5029512554e+02 0.0000000000e+00 0.0000e+00 1.0000e+00
</event>
<event>
 6      1 +1.4834189e-01 1.00012900e+04 7.81653100e-03 6.93864800e-02
  1000022 -1    0    0    0    0 +0.0000000000e+00 +0.0000000000e+00 +4.4721471353e+01 1.0000100000e+04 1.0000000000e+04 0.0000e+00 -1.0000e+00
  1000022 -1    0    0    0    0 -0.0000000000e+00 -0.0000000000e+00 -4.4721471353e+01 1.0000100000e+04 1.0000000000e+04 0.0000e+00 -1.0000e+00
      -24  1    1    2    0    0 +4.9619963997e+03 +6.9936695055e+02 -3.6270613568e+03 6.1864746956e+03 7.9829010000e+01 0.0000e+00 -1.0000e+00
       24  1    1    2    0    0 -7.8987393835e+03 -8.7301560329e+02 +5.9426129402e+03 9.9233694540e+03 7.9829010000e+01 0.0000e+00 -1.0000e+00
       22  1    1    2    0    0 +3.0083965422e+03 +1.7175761580e+02 -2.3394090092e+03 3.8148112595e+03 0.0000000000e+00 0.0000e+00 -1.0000e+00
       22  1    1    2    0    0 -7.1653558360e+01 +1.8910369432e+00 +2.3857425814e+01 7.5544590891e+01 0.0000000000e+00 0.0000e+00 1.0000e+00
</event>
<event>
 6      1 +1.4834189e-01 1.00365100e+04 7.81653100e-03 6.93652600e-02
  1000022 -1    0    0    0    0 +0.0000000000e+00 +0.0000000000e+00 +4.4721471353e+01 1.0000100000e+04 1.0000000000e+04 0.0000e+00 1.0000e+00
  1000022 -1    0    0    0    0 -0.0000000000e+00 -0.0000000000e+00 -4.4721471353e+01 1.0000100000e+04 1.0000000000e+04 0.0000e+00 1.0000e+00
      -24  1    1    2    0    0 +9.7827726628e+02 -4.7521391402e+02 +5.4087181479e+02 1.2172796165e+03 7.9829010000e+01 0.0000e+00 1.0000e+00
       24  1    1    2    0    0 -6.8181561277e+03 +2.1236806170e+03 -6.9268795637e+03 9.9491359175e+03 7.9829010000e+01 0.0000e+00 -1.0000e+00
       22  1    1    2    0    0 -4.2424746517e+00 +1.2186258276e+01 -6.7405642821e+00 1.4558114191e+01 0.0000000000e+00 0.0000e+00 -1.0000e+00
       22  1    1    2    0    0 +5.8441213361e+03 -1.6606529612e+03 +6.3927483132e+03 8.8192263518e+03 0.0000000000e+00 0.0000e+00 -1.0000e+00
</event>
<event>
 6      1 +1.4834189e-01 1.01473000e+04 7.81653100e-03 6.92990700e-02
  1000022 -1    0    0    0    0 +0.0000000000e+00 +0.0000000000e+00 +4.4721471353e+01 1.0000100000e+04 1.0000000000e+04 0.0000e+00 -1.0000e+00
  1000022 -1    0    0    0    0 -0.0000000000e+00 -0.0000000000e+00 -4.4721471353e+01 1.0000100000e+04 1.0000000000e+04 0.0000e+00 -1.0000e+00
      -24  1    1    2    0    0 -6.4706208953e+03 +7.2883267218e+03 +6.9436332314e+02 9.7712411837e+03 7.9829010000e+01 0.0000e+00 1.0000e+00
       24  1    1    2    0    0 +6.7429400475e+03 -6.9361394786e+03 -8.7649216715e+02 9.7134897200e+03 7.9829010000e+01 0.0000e+00 1.0000e+00
       22  1    1    2    0    0 -2.6086374442e+02 -2.1421686131e+02 +1.6578355734e+02 3.7606242129e+02 0.0000000000e+00 0.0000e+00 -1.0000e+00
       22  1    1    2    0    0 -1.1455407790e+01 -1.3797038189e+02 +1.6345286681e+01 1.3940667503e+02 0.0000000000e+00 0.0000e+00 1.0000e+00
</event>
<event>
 6      1 +1.4834189e-01 8.95068100e+03 7.81653100e-03 7.00632400e-02
  1000022 -1    0    0    0    0 +0.0000000000e+00 +0.0000000000e+00 +4.4721471353e+01 1.0000100000e+04 1.0000000000e+04 0.0000e+00 -1.0000e+00
  1000022 -1    0    0    0    0 -0.0000000000e+00 -0.0000000000e+00 -4.4721471353e+01 1.0000100000e+04 1.0000000000e+04 0.0000e+00 -1.0000e+00
      -24  1    1    2    0    0 -5.1454932210e+02 -1.9154844517e+03 +1.4150350254e+02 1.9900345730e+03 7.9829010000e+01 0.0000e+00 1.0000e+00
       24  1    1    2    0    0 -2.8075914251e+03 +3.8812578396e+03 +6.0540076109e+03 7.7203699945e+03 7.9829010000e+01 0.0000e+00 1.0000e+00
       22  1    1    2    0    0 +3.9207391341e+03 -2.7006416623e+03 -7.3740738350e+03 8.7773928743e+03 0.0000000000e+00 0.0000e+00 1.0000e+00
       22  1    1    2    0    0 -5.9859838689e+02 +7.3486827436e+02 +1.1785627216e+03 1.5124025582e+03 0.0000000000e+00 0.0000e+00 -1.0000e+00
</event>
<event>
 6      1 +1.4834189e-01 1.00428200e+04 7.81653100e-03 6.93614600e-02
  1000022 -1    0    0    0    0 +0.0000000000e+00 +0.0000000000e+00 +4.4721471353e+01 1.0000100000e+04 1.0000000000e+04 0.0000e+00 -1.0000e+00
  1000022 -1    0    0    0    0 -0.0000000000e+00 -0.0000000000e+00 -4.4721471353e+01 1.0000100000e+04 1.0000000000e+04 0.0000e+00 -1.0000e+00
      -24  1    1    2    0    0 -2.5413043401e+03 +3.3702012980e+03 -2.5236239502e+02 4.2292486316e+03 7.9829010000e+01 0.0000e+00 -1.0000e+00
       24  1    1    2    0    0 +5.9124639929e+03 -7.9743662330e+03 +2.9777050342e+02 9.9319075323e+03 7.9829010000e+01 0.0000e+00 -1.0000e+00
       22  1    1    2    0    0 +2.0148605739e+01 -9.5915252821e+00 +1.0864758632e+02 1.1091556106e+02 0.0000000000e+00 0.0000e+00 1.0000e+00
       22  1    1    2    0    0 -3.3913082585e+03 +4.6137564603e+03 -1.5405569472e+02 5.7281282751e+03 0.0000000000e+00 0.0000e+00 -1.0000e+00
</event>
<event>
 6      1 +1.4834189e-01 1.00476600e+04 7.81653100e-03 6.93585600e-02
  1000022 -1    0    0    0    0 +0.0000000000e+00 +0.0000000000e+00 +4.4721471353e+01 1.0000100000e+04 1.0000000000e+04 0.0000e+00 1.0000e+00
  1000022 -1    0    0    0    0 -0.0000000000e+00 -0.0000000000e+00 -4.4721471353e+01 1.0000100000e+04 1.0000000000e+04 0.0000e+00 1.0000e+00
      -24  1    1    2    0    0 -4.9958519794e+03 +7.9503827016e+03 -3.2984290780e+03 9.9525438535e+03 7.9829010000e+01 0.0000e+00 1.0000e+00
       24  1    1    2    0    0 +3.9622397967e+03 -6.3068308983e+03 +2.7293469362e+03 7.9329167117e+03 7.9829010000e+01 0.0000e+00 1.0000e+00
       22  1    1    2    0    0 +9.5344935472e+02 -1.5154074779e+03 +6.9244392372e+02 1.9196364457e+03 0.0000000000e+00 0.0000e+00 1.0000e+00
       22  1    1    2    0    0 +8.0162827964e+01 -1.2814432545e+02 -1.2336178189e+02 1.9510298912e+02 0.0000000000e+00 0.0000e+00 -1.0000e+00
</event>
<event>
 6      1 +1.4834189e-01 1.00015400e+04 7.81653100e-03 6.93863300e-02
  1000022 -1    0    0    0    0 +0.0000000000e+00 +0.0000000000e+00 +4.4721471353e+01 1.0000100000e+04 1.0000000000e+04 0.0000e+00 -1.0000e+00
  1000022 -1    0    0    0    0 -0.0000000000e+00 -0.0000000000e+00 -4.4721471353e+01 1.0000100000e+04 1.0000000000e+04 0.0000e+00 -1.0000e+00
      -24  1    1    2    0    0 -9.5076886051e+03 -5.7726854838e+01 -2.5011056950e+03 9.8316518129e+03 7.9829010000e+01 0.0000e+00 -1.0000e+00
       24  1    1    2    0    0 +8.8376603883e+03 +5.6680643548e+01 +2.2948858454e+03 9.1312829081e+03 7.9829010000e+01 0.0000e+00 -1.0000e+00
       22  1    1    2    0    0 +8.3896349207e+02 -1.0503241710e+01 +2.1994977505e+02 8.6737994135e+02 0.0000000000e+00 0.0000e+00 -1.0000e+00
       22  1    1    2    0    0 -1.6893527528e+02 +1.1549453000e+01 -1.3729925462e+01 1.6988533766e+02 0.0000000000e+00 0.0000e+00 1.0000e+00
</event>
<event>
 6      1 +1.4834189e-01 1.00022500e+04 7.81653100e-03 6.93859000e-02
  1000022 -1    0    0    0    0 +0.0000000000e+00 +0.0000000000e+00 +4.4721471353e+01 1.0000100000e+04 1.0000000000e+04 0.0000e+00 1.0000e+00
  1000022 -1    0    0    0    0 -0.0000000000e+00 -0.0000000000e+00 -4.4721471353e+01 1.0000100000e+04 1.0000000000e+04 0.0000e+00 1.0000e+00
      -24  1    1    2    0    0 +1.6406386958e+03 -5.3146716913e+03 -4.5647353838e+03 7.1958746731e+03 7.9829010000e+01 0.0000e+00 -1.0000e+00
       24  1    1    2    0    0 -2.2554222129e+03 +7.4405764740e+03 +6.2851876069e+03 9.9979529679e+03 7.9829010000e+01 0.0000e+00 -1.0000e+00
       22  1    1    2    0    0 +6.1416456443e+02 -2.1150662578e+03 -1.7215906796e+03 2.7954566452e+03 0.0000000000e+00 0.0000e+00 1.0000e+00
       22  1    1    2    0    0 +6.1895267792e-01 -1.0838524940e+01 +1.1384565005e+00 1.0915713834e+01 0.0000000000e+00 0.0000e+00 1.0000e+00
</event>
<event>
 6      1 +1.4834189e-01 1.00002800e+04 7.81653100e-03 6.93870800e-02
  1000022 -1    0    0    0    0 +0.0000000000e+00 +0.0000000000e+00 +4.4721471353e+01 1.0000100000e+04 1.0000000000e+04 0.0000e+00 1.0000e+00
  1000022 -1    0    0    0    0 -0.0000000000e+00 -0.0000000000e+00 -4.4721471353e+01 1.0000100000e+04 1.0000000000e+04 0.0000e+00 1.0000e+00
      -24  1    1    2    0    0 -2.4917552676e+03 -5.5122730019e+03 -3.7364725781e+03 7.1106678982e+03 7.9829010000e+01 0.0000e+00 -1.0000e+00
       24  1    1    2    0    0 +3.4057924400e+03 +7.5226036699e+03 +5.1632593473e+03 9.7393330304e+03 7.9829010000e+01 0.0000e+00 -1.0000e+00
       22  1    1    2    0    0 -1.0056911104e+03 -2.2144862521e+03 -1.5602928068e+03 2.8896154785e+03 0.0000000000e+00 0.0000e+00 -1.0000e+00
       22  1    1    2    0    0 +9.1653938048e+01 +2.0415558408e+02 +1.3350603756e+02 2.6058359299e+02 0.0000000000e+00 0.0000e+00 1.0000e+00
</event>
<event>
 6      1 +1.4834189e-01 1.01652100e+04 7.81653100e-03 6.92884500e-02
  1000022 -1    0    0    0    0 +0.0000000000e+00 +0.0000000000e+00 +4.4721471353e+01 1.0000100000e+04 1.0000000000e+04 0.0000e+00 1.0000e+00
  1000022 -1    0    0    0    0 -0.0000000000e+00 -0.0000000000e+00 -4.4721471353e+01 1.0000100000e+04 1.0000000000e+04 0.0000e+00 1.0000e+00
      -24  1    1    2    0    0 +7.7784929989e+03 +7.6325245520e+02 +1.4928119247e+03 7.9575352816e+03 7.9829010000e+01 0.0000e+00 1.0000e+00
       24  1    1    2    0    0 -9.3302602192e+03 -4.2335749009e+02 -2.5925716237e+03 9.6933372797e+03 7.9829010000e+01 0.0000e+00 1.0000e+00
       22  1    1    2    0    0 -1.8362298800e+02 -1.3095972514e+02 +4.1448216019e+02 4.7187213570e+02 0.0000000000e+00 0.0000e+00 -1.0000e+00
       22  1    1    2    0    0 +1.7353902084e+03 -2.0893523996e+02 +6.8527753875e+02 1.8774553030e+03 0.0000000000e+00 0.0000e+00 -1.0000e+00
</event>
<event>
 6      1 +1.4834189e-01 1.01052500e+04 7.81653100e-03 6.93240900e-02
  1000022 -1    0    0    0    0 +0.0000000000e+00 +0.0000000000e+00 +4.4721471353e+01 1.0000100000e+04 1.0000000000e+04 0.0000e+00 1.0000e+00
  1000022 -1    0    0    0    0 -0.0000000000e+00 -0.0000000000e+00 -4.4721471353e+01 1.0000100000e+04 1.0000000000e+04 0.0000e+00 1.0000e+00
      -24  1    1    2    0    0 -5.7774559491e+03 -7.1693884963e+03 +3.6227885966e+03 9.8949531853e+03 7.9829010000e+01 0.0000e+00 -1.0000e+00
       24  1    1    2    0    0 +4.8687460204e+03 +6.6865756447e+03 -2.7132752157e+03 8.7053556349e+03 7.9829010000e+01 0.0000e+00 -1.0000e+00
       22  1    1    2    0    0 +7.1565547227e+00 +6.7355266878e+01 -3.1785871423e+01 7.4821720602e+01 0.0000000000e+00 0.0000e+00 -1.0000e+00
       22  1    1    2    0    0 +9.0155337397e+02 +4.1545758472e+02 -8.7772750944e+02 1.3250694592e+03 0.0000000000e+00 0.0000e+00 -1.0000e+00
</event>
<event>
 6      1 +1.4834189e-01 1.00645300e+04 7.81653100e-03 6.93484400e-02
  1000022 -1    0    0    0    0 +0.0000000000e+00 +0.0000000000e+00 +4.4721471353e+01 1.0000100000e+04 1.0000000000e+04 0.0000e+00 -1.0000e+00
  1000022 -1    0    0    0    0 -0.0000000000e+00 -0.0000000000e+00 -4.4721471353e+01 1.0000100000e+04 1.0000000000e+04 0.0000e+00 -1.0000e+00
      -24  1    1    2    0    0 -3.9099441849e+03 -4.9721836956e+03 -7.6616498327e+03 9.9356693313e+03 7.9829010000e+01 0.0000e+00 1.0000e+00
       24  1    1    2    0    0 +1.6182520884e+03 +2.6956392957e+03 +2.7172669284e+03 4.1563353167e+03 7.9829010000e+01 0.0000e+00 1.0000e+00
       22  1    1    2    0    0 +7.7667174732e+00 +2.5649124606e+01 +3.0934169617e+01 4.0928258493e+01 0.0000000000e+00 0.0000e+00 1.0000e+00
       22  1    1    2    0    0 +2.2839253791e+03 +2.2508952753e+03 +4.9134487347e+03 5.8672670934e+03 0.0000000000e+00 0.0000e+00 1.0000e+00
</event>
<event>
 6      1 +1.4834189e-01 1.00188300e+04 7.81653100e-03 6.93759000e-02
  1000022 -1    0    0    0    0 +0.0000000000e+00 +0.0000000000e+00 +4.4721471353e+01 1.0000100000e+04 1.0000000000e+04 0.0000e+00 -1.0000e+00
  1000022 -1    0    0    0    0 -0.0000000000e+00 -0.0000000000e+00 -4.4721471353e+01 1.0000100000e+04 1.0000000000e+04 0.0000e+00 -1.0000e+00
      -24  1    1    2    0    0 +5.2056320856e+03 -7.7105095810e+03 +3.5551822705e+03 9.9597317764e+03 7.9829010000e+01 0.0000e+00 -1.0000e+00
       24  1    1    2    0    0 -5.1253879812e+03 +7.5258329231e+03 -3.5470948439e+03 9.7722063858e+03 7.9829010000e+01 0.0000e+00 -1.0000e+00
       22  1    1    2    0    0 -1.0818174384e+02 +1.6940724223e+02 -5.7871286568e+01 2.0916784942e+02 0.0000000000e+00 0.0000e+00 1.0000e+00
       22  1    1    2    0    0 +2.7937639380e+01 +1.5269415663e+01 +4.9783860020e+01 5.9093988419e+01 0.0000000000e+00 0.0000e+00 1.0000e+00
</event>
<event>
 6      1 +1.4834189e-01 1.00179900e+04 7.81653100e-03 6.93764000e-02
  1000022 -1    0    0    0    0 +0.0000000000e+00 +0.0000000000e+00 +4.4721471353e+01 1.0000100000e+04 1.0000000000e+04 0.0000e+00 -1.0000e+00
  1000022 -1    0    0    0    0 -0.0000000000e+00 -0.0000000000e+00 -4.4721471353e+01 1.0000100000e+04 1.0000000000e+04 0.0000e+00 -1.0000e+00
      -24  1    1    2    0    0 -3.9953719957e+02 -1.4235757388e+03 -1.9882565916e+01 1.4808665859e+03 7.9829010000e+01 0.0000e+00 -1.0000e+00
       24  1    1    2    0    0 +4.9650971104e+03 +7.7250599907e+03 -1.6712553541e+02 9.1849357532e+03 7.9829010000e+01 0.0000e+00 -1.0000e+00
       22  1    1    2    0    0 +4.9741175004e+02 +5.5637843714e+02 -2.8047818765e+02 7.9727249303e+02 0.0000000000e+00 0.0000e+00 -1.0000e+00
       22  1    1    2    0    0 -5.0629716609e+03 -6.8578626891e+03 +4.6748628897e+02 8.5371251679e+03 0.0000000000e+00 0.0000e+00 -1.0000e+00
</event>
<event>
 6      1 +1.4834189e-01 1.00031900e+04 7.81653100e-03 6.93853300e-02
  1000022 -1    0    0    0    0 +0.0000000000e+00 +0.0000000000e+00 +4.4721471353e+01 1.0000100000e+04 1.0000000000e+04 0.0000e+00 -1.0000e+00
  1000022 -1    0    0    0    0 -0.0000000000e+00 -0.0000000000e+00 -4.4721471353e+01 1.0000100000e+04 1.0000000000e+04 0.0000e+00 -1.0000e+00
      -24  1    1    2    0    0 +5.3740632057e+03 -5.5849898539e+03 -6.2690453032e+03 9.9689502302e+03 7.9829010000e+01 0.0000e+00 -1.0000e+00
       24  1    1    2    0    0 -2.9683249881e+03 +2.8784921114e+03 +3.6267562260e+03 5.5005821023e+03 7.9829010000e+01 0.0000e+00 -1.0000e+00
       22  1    1    2    0    0 +5.4212661426e+00 -2.7524581142e+01 -6.0853342064e-01 2.8059989425e+01 0.0000000000e+00 0.0000e+00 -1.0000e+00
       22  1    1    2    0    0 -2.4111594838e+03 +2.7340223236e+03 +2.6428976107e+03 4.5026076781e+03 0.0000000000e+00 0.0000e+00 -1.0000e+00
</event>
<event>
 6      1 +1.4834189e-01 1.00056200e+04 7.81653100e-03 6.93838600e-02
  1000022 -1    0    0    0    0 +0.0000000000e+00 +0.0000000000e+00 +4.4721471353e+01 1.0000100000e+04 1.0000000000e+04 0.0000e+00 1.0000e+00
  1000022 -1    0    0    0    0 -0.0000000000e+00 -0.0000000000e+00 -4.4721471353e+01 1.0000100000e+04 1.0000000000e+04 0.0000e+00 1.0000e+00
      -24  1    1    2    0    0 -5.3942903088e+02 +8.0865098604e+02 -1.2181966090e+03 1.5605370055e+03 7.9829010000e+01 0.0000e+00 -1.0000e+00
       24  1    1    2    0    0 +2.3899059964e+03 -4.6175783394e+03 +7.6643473706e+03 9.2618720397e+03 7.9829010000e+01 0.0000e+00 1.0000e+00
       22  1    1    2    0    0 -2.0445120494e+03 +4.1770644348e+03 -7.0492184763e+03 8.4450801026e+03 0.0000000000e+00 0.0000e+00 1.0000e+00
       22  1    1    2    0    0 +1.9403508383e+02 -3.6813708146e+02 +6.0306771469e+02 7.3271085224e+02 0.0000000000e+00 0.0000e+00 1.0000e+00
</event>
<event>
 6      1 +1.4834189e-01 1.03282800e+04 7.81653100e-03 6.91927700e-02
  1000022 -1    0    0    0    0 +0.0000000000e+00 +0.0000000000e+00 +4.4721471353e+01 1.0000100000e+04 1.0000000000e+04 0.0000e+00 -1.0000e+00
  1000022 -1    0    0    0    0 -0.0000000000e+00 -0.0000000000e+00 -4.4721471353e+01 1.0000100000e+04 1.0000000000e+04 0.0000e+00 -1.0000e+00
      -24  1    1    2    0    0 +6.5137307061e+02 +4.2522699281e+03 +8.6621903117e+03 9.6719181182e+03 7.9829010000e+01 0.0000e+00 1.0000e+00
       24  1    1    2    0    0 +9.7482595155e+01 -2.8319157318e+01 -3.1275446696e+02 3.3836793357e+02 7.9829010000e+01 0.0000e+00 0.0000e+00
       22  1    1    2    0    0 +5.1073506523e+02 +1.5904017112e+02 -2.5845685077e+03 2.6393443227e+03 0.0000000000e+00 0.0000e+00 1.0000e+00
       22  1    1    2    0    0 -1.2595907310e+03 -4.3829909419e+03 -5.7648673371e+03 7.3505696255e+03 0.0000000000e+00 0.0000e+00 1.0000e+00
</event>
<event>
 6      1 +1.4834189e-01 1.00755200e+04 7.81653100e-03 6.93418600e-02
  1000022 -1    0    0    0    0 +0.0000000000e+00 +0.0000000000e+00 +4.4721471353e+01 1.0000100000e+04 1.0000000000e+04 0.0000e+00 1.0000e+00
  1000022 -1    0    0    0    0 -0.0000000000e+00 -0.0000000000e+00 -4.4721471353e+01 1.0000100000e+04 1.0000000000e+04 0.0000e+00 1.0000e+00
      -24  1    1    2    0    0 -2.4303847104e+03 +6.5100699968e+03 -5.1847841780e+03 8.6704175705e+03 7.9829010000e+01 0.0000e+00 1.0000e+00
       24  1    1    2    0    0 +2.0578388622e+03 -7.5987467144e+03 +5.9191499843e+03 9.8497899277e+03 7.9829010000e+01 0.0000e+00 1.0000e+00
       22  1    1    2    0    0 +3.2772464412e+02 +1.1165924819e+03 -7.8747730887e+02 1.4050988310e+03 0.0000000000e+00 0.0000e+00 1.0000e+00
       22  1    1    2    0    0 +4.4821204051e+01 -2.7915764238e+01 +5.3111502545e+01 7.4893670815e+01 0.0000000000e+00 0.0000e+00 -1.0000e+00
</event>
<event>
 6      1 +1.4834189e-01 1.00115600e+04 7.81653100e-03 6.93802800e-02
  1000022 -1    0    0    0    0 +0.0000000000e+00 +0.0000000000e+00 +4.4721471353e+01 1.0000100000e+04 1.0000000000e+04 0.0000e+00 -1.0000e+00
  1000022 -1    0    0    0    0 -0.0000000000e+00 -0.0000000000e+00 -4.4721471353e+01 1.0000100000e+04 1.0000000000e+04 0.0000e+00 -1.0000e+00
      -24  1    1    2    0    0 +5.9598245731e+02 +8.5669876325e+02 +1.8440543723e+03 2.1203860637e+03 7.9829010000e+01 0.0000e+00 1.0000e+00
       24  1    1    2    0    0 -3.4217251224e+03 -4.2686763838e+03 -8.3568346118e+03 9.9886364576e+03 7.9829010000e+01 0.0000e+00 1.0000e+00
       22  1    1    2    0    0 +1.5338983590e+01 +4.4661288555e+01 +1.1268886040e+01 4.8547944401e+01 0.0000000000e+00 0.0000e+00 -1.0000e+00
       22  1    1    2    0    0 +2.8104036815e+03 +3.3673163320e+03 +6.5015113535e+03 7.8426295343e+03 0.0000000000e+00 0.0000e+00 1.0000e+00
</event>
<event>
 6      1 +1.4834189e-01 1.00208700e+04 7.81653100e-03 6.93746700e-02
  1000022 -1    0    0    0    0 +0.0000000000e+00 +0.0000000000e+00 +4.4721471353e+01 1.0000100000e+04 1.0000000000e+04 0.0000e+00 1.0000e+00
  1000022 -1    0    0    0    0 -0.0000000000e+00 -0.0000000000e+00 -4.4721471353e+01 1.0000100000e+04 1.0000000000e+04 0.0000e+00 1.0000e+00
      -24  1    1    2    0    0 -6.4546247627e+03 +3.0336699388e+03 +6.4209565454e+03 9.5968947975e+03 7.9829010000e+01 0.0000e+00 -1.0000e+00
       24  1    1    2    0    0 +6.6843732407e+03 -3.2079502924e+03 -6.6789879121e+03 9.9793307841e+03 7.9829010000e+01 0.0000e+00 -1.0000e+00
       22  1    1    2    0    0 -2.2951789597e+02 +1.0796422836e+02 +2.5173655559e+02 3.5735980831e+02 0.0000000000e+00 0.0000e+00 1.0000e+00
       22  1    1    2    0    0 -2.3058199282e-01 +6.6316125195e+01 +6.2948110991e+00 6.6614610077e+01 0.0000000000e+00 0.0000e+00 -1.0000e+00
</event>
<event>
 6      1 +1.4834189e-01 1.00340100e+04 7.81653100e-03 6.93667600e-02
  1000022 -1    0    0    0    0 +0.0000000000e+00 +0.0000000000e+00 +4.4721471353e+01 1.0000100000e+04 1.0000000000e+04 0.0000e+00 -1.0000e+00
  1000022 -1    0    0    0    0 -0.0000000000e+00 -0.0000000000e+00 -4.4721471353e+01 1.0000100000e+04 1.0000000000e+04 0.0000e+00 -1.0000e+00
      -24  1    1    2    0    0 -3.1188670506e+03 +5.2708918495e+03 +9.2961775776e+02 6.1951750915e+03 7.9829010000e+01 0.0000e+00 1.0000e+00
       24  1    1    2    0    0 +5.1054807689e+03 -8.5072566860e+03 -9.3766737369e+02 9.9661899931e+03 7.9829010000e+01 0.0000e+00 1.0000e+00
       22  1    1    2    0    0 -1.9960897224e+03 +3.2070148127e+03 +6.0533190388e+01 3.7779600918e+03 0.0000000000e+00 0.0000e+00 1.0000e+00
       22  1    1    2    0    0 +9.4760040571e+00 +2.9350023881e+01 -5.2483574458e+01 6.0874823553e+01 0.0000000000e+00 0.0000e+00 1.0000e+00
</event>
<event>
 6      1 +1.4834189e-01 1.00001800e+04 7.81653100e-03 6.93871500e-02
  1000022 -1    0    0    0    0 +0.0000000000e+00 +0.0000000000e+00 +4.4721471353e+01 1.0000100000e+04 1.0000000000e+04 0.0000e+00 -1.0000e+00
  1000022 -1    0    0    0    0 -0.0000000000e+00 -0.0000000000e+00 -4.4721471353e+01 1.0000100000e+04 1.0000000000e+04 0.0000e+00 -1.0000e+00
      -24  1    1    2    0    0 -3.1612546630e+03 +2.7536512308e+03 -9.0531887785e+03 9.9771100964e+03 7.9829010000e+01 0.0000e+00 1.0000e+00
       24  1    1    2    0    0 +3.1190736784e+03 -2.7170656913e+03 +8.9007413169e+03 9.8153265480e+03 7.9829010000e+01 0.0000e+00 1.0000e+00
       22  1    1    2    0    0 +4.7233266770e+01 -4.6122070425e+01 +1.7265978218e+02 1.8485028335e+02 0.0000000000e+00 0.0000e+00 -1.0000e+00
       22  1    1    2    0    0 -5.0522821625e+00 +9.5365308383e+00 -2.0212320635e+01 2.2913072272e+01 0.0000000000e+00 0.0000e+00 1.0000e+00
</event>
<event>
 6      1 +1.4834189e-01 1.00831900e+04 7.81653100e-03 6.93372600e-02
  1000022 -1    0    0    0    0 +0.0000000000e+00 +0.0000000000e+00 +4.4721471353e+01 1.0000100000e+04 1.0000000000e+04 0.0000e+00 -1.0000e+00
  1000022 -1    0    0    0    0 -0.0000000000e+00 -0.0000000000e+00 -4.4721471353e+01 1.0000100000e+04 1.0000000000e+04 0.0000e+00 -1.0000e+00
      -24  1    1    2    0    0 +2.5458288085e+03 +8.2065611608e+03 -4.8795073519e+03 9.8815411286e+03 7.9829010000e+01 0.0000e+00 -1.0000e+00
       24  1    1    2    0    0 -1.9097647688e+02 -4.7400094197e+02 +1.4831364511e+02 5.3806924821e+02 7.9829010000e+01 0.0000e+00 -1.0000e+00
       22  1    1    2    0    0 +1.2358801252e+02 -1.0033002980e+02 -1.2378879954e+02 2.0165261865e+02 0.0000000000e+00 0.0000e+00 -1.0000e+00
       22  1    1    2    0    0 -2.4784403442e+03 -7.6322301891e+03 +4.8549825063e+03 9.3789370045e+03 0.0000000000e+00 0.0000e+00 -1.0000e+00
</event>
<event>
 6      1 +1.4834189e-01 1.00106800e+04 7.81653100e-03 6.93808100e-02
  1000022 -1    0    0    0    0 +0.0000000000e+00 +0.0000000000e+00 +4.4721471353e+01 1.0000100000e+04 1.0000000000e+04 0.0000e+00 1.0000e+00
  1000022 -1    0    0    0    0 -0.0000000000e+00 -0.0000000000e+00 -4.4721471353e+01 1.0000100000e+04 1.0000000000e+04 0.0000e+00 1.0000e+00
      -24  1    1    2    0    0 +1.3012042773e+03 -4.8602310385e+03 +7.9334525741e+03 9.3947336703e+03 7.9829010000e+01 0.0000e+00 -1.0000e+00
       24  1    1    2    0    0 -1.5585657812e+02 +3.2802448338e+02 -3.6971861234e+02 5.2436233445e+02 7.9829010000e+01 0.0000e+00 0.0000e+00
       22  1    1    2    0    0 -1.2361715276e+03 +4.8391286279e+03 -8.0650484864e+03 9.4863213634e+03 0.0000000000e+00 0.0000e+00 -1.0000e+00
       22  1    1    2    0    0 +9.0823828485e+01 -3.0692207275e+02 +5.0131452462e+02 5.9478263186e+02 0.0000000000e+00 0.0000e+00 1.0000e+00
</event>
<event>
 6      1 +1.4834189e-01 1.01569800e+04 7.81653100e-03 6.92933300e-02
  1000022 -1    0    0    0    0 +0.0000000000e+00 +0.0000000000e+00 +4.4721471353e+01 1.0000100000e+04 1.0000000000e+04 0.0000e+00 -1.0000e+00
  1000022 -1    0    0    0    0 -0.0000000000e+00 -0.0000000000e+00 -4.4721471353e+01 1.0000100000e+04 1.0000000000e+04 0.0000e+00 -1.0000e+00
      -24  1    1    2    0    0 -1.1569887934e+01 +1.6309521188e+03 -1.9520267783e+03 2.5449793497e+03 7.9829010000e+01 0.0000e+00 1.0000e+00
       24  1    1    2    0    0 -1.0510072227e+03 -3.0630903100e+03 +3.4541865468e+03 4.7354953068e+03 7.9829010000e+01 0.0000e+00 1.0000e+00
       22  1    1    2    0    0 -4.2972897324e+02 +5.2162255955e+03 -5.0863192263e+03 7.2982408651e+03 0.0000000000e+00 0.0000e+00 1.0000e+00
       22  1    1    2    0    0 +1.4923060839e+03 -3.7840874042e+03 +3.5841594578e+03 5.4214844784e+03 0.0000000000e+00 0.0000e+00 1.0000e+00
</event>
<event>
 6      1 +1.4834189e-01 1.00287900e+04 7.81653100e-03 6.93699000e-02
  1000022 -1    0    0    0    0 +0.0000000000e+00 +0.0000000000e+00 +4.4721471353e+01 1.0000100000e+04 1.0000000000e+04 0.0000e+00 1.0000e+00
  1000022 -1    0    0    0    0 -0.0000000000e+00 -0.0000000000e+00 -4.4721471353e+01 1.0000100000e+04 1.0000000000e+04 0.0000e+00 1.0000e+00
      -24  1    1    2    0    0 +3.7256933208e+03 -7.3091289328e+03 +5.6673248167e+03 9.9714141287e+03 7.9829010000e+01 0.0000e+00 1.0000e+00
       24  1    1    2    0    0 -3.5838925430e+03 +7.2759841883e+03 -5.5375641000e+03 9.8211618712e+03 7.9829010000e+01 0.0000e+00 1.0000e+00
       22  1    1    2    0    0 -2.1364293007e+01 +9.0567132998e+00 +6.5797481461e+00 2.4119497448e+01 0.0000000000e+00 0.0000e+00 -1.0000e+00
       22  1    1    2    0    0 -1.2043648479e+02 +2.4088031157e+01 -1.3634046489e+02 1.8350450261e+02 0.0000000000e+00 0.0000e+00 -1.0000e+00
</event>
<event>
 6      1 +1.4834189e-01 1.00034900e+04 7.81653100e-03 6.93851500e-02
  1000022 -1    0    0    0    0 +0.0000000000e+00 +0.0000000000e+00 +4.4721471353e+01 1.0000100000e+04 1.0000000000e+04 0.0000e+00 1.0000e+00
  1000022 -1    0    0    0    0 -0.0000000000e+00 -0.0000000000e+00 -4.4721471353e+01 1.0000100000e+04 1.0000000000e+04 0.0000e+00 1.0000e+00
      -24  1    1    2    0    0 -1.7895429016e+03 +2.8166144381e+03 +9.4229588195e+03 9.9967147741e+03 7.9829010000e+01 0.0000e+00 1.0000e+00
       24  1    1    2    0    0 +1.7608762305e+03 -2.7864366580e+03 -9.3625073633e+03 9.9261186345e+03 7.9829010000e+01 0.0000e+00 1.0000e+00
       22  1    1    2    0    0 +3.7080033654e+00 -1.1146878049e+01 -3.5121333783e+01 3.7033906976e+01 0.0000000000e+00 0.0000e+00 -1.0000e+00
       22  1    1    2    0    0 +2.4958667773e+01 -1.9030902056e+01 -2.5330122394e+01 4.0332684396e+01 0.0000000000e+00 0.0000e+00 -1.0000e+00
</event>
<event>
 6      1 +1.4834189e-01 1.01941900e+04 7.81653100e-03 6.92713200e-02
  1000022 -1    0    0    0    0 +0.0000000000e+00 +0.0000000000e+00 +4.4721471353e+01 1.0000100000e+04 1.0000000000e+04 0.0000e+00 -1.0000e+00
  1000022 -1    0    0    0    0 -0.0000000000e+00 -0.0000000000e+00 -4.4721471353e+01 1.0000100000e+04 1.0000000000e+04 0.0000e+00 -1.0000e+00
      -24  1    1    2    0    0 -4.6475536315e+02 +4.9224104551e+02 -7.5744572576e+02 1.0190169247e+03 7.9829010000e+01 0.0000e+00 1.0000e+00
       24  1    1    2    0    0 +8.4187174854e+03 +1.8990856633e+03 +4.5757115540e+03 9.7685638326e+03 7.9829010000e+01 0.0000e+00 1.0000e+00
       22  1    1    2    0    0 +2.1746055029e+01 +1.3586683558e+01 +2.7288465930e+01 3.7445283444e+01 0.0000000000e+00 0.0000e+00 -1.0000e+00
       22  1    1    2    0    0 -7.9757081773e+03 -2.4049133923e+03 -3.8455542942e+03 9.1751739593e+03 0.0000000000e+00 0.0000e+00 1.0000e+00
</event>
<event>
 6      1 +1.4834189e-01 1.01037900e+04 7.81653100e-03 6.93249600e-02
  1000022 -1    0    0    0    0 +0.0000000000e+00 +0.0000000000e+00 +4.4721471353e+01 1.0000100000e+04 1.0000000000e+04 0.0000e+00 -1.0000e+00
  1000022 -1    0    0    0    0 -0.0000000000e+00 -0.0000000000e+00 -4.4721471353e+01 1.0000100000e+04 1.0000000000e+04 0.0000e+00 -1.0000e+00
      -24  1    1    2    0    0 -1.4805462541e+03 -2.4370438638e+03 -9.0983560596e+01 2.8540936711e+03 7.9829010000e+01 0.0000e+00 1.0000e+00
       24  1    1    2    0    0 +2.9776174746e+03 +9.3277050354e+03 +1.4353910746e+03 9.8964138585e+03 7.9829010000e+01 0.0000e+00 1.0000e+00
       22  1    1    2    0    0 -3.9671264197e+02 -4.9553214760e+02 -1.1047744221e+02 6.4431226501e+02 0.0000000000e+00 0.0000e+00 -1.0000e+00
       22  1    1    2    0    0 -1.1003585785e+03 -6.3951290240e+03 -1.2339300718e+03 6.6053802053e+03 0.0000000000e+00 0.0000e+00 1.0000e+00
</event>
<event>
 6      1 +1.4834189e-01 1.00248200e+04 7.81653100e-03 6.93722900e-02
  1000022 -1    0    0    0    0 +0.0000000000e+00 +0.0000000000e+00 +4.4721471353e+01 1.0000100000e+04 1.0000000000e+04 0.0000e+00 -1.0000e+00
  1000022 -1    0    0    0    0 -0.0000000000e+00 -0.0000000000e+00 -4.4721471353e+01 1.0000100000e+04 1.0000000000e+04 0.0000e+00 -1.0000e+00
      -24  1    1    2    0    0 -4.0087702629e+02 -3.5173894537e+02 -8.1118049379e+02 9.7406834475e+02 7.9829010000e+01 0.0000e+00 -1.0000e+00
       24  1    1    2    0    0 +2.7983699835e+03 +3.7711129156e+03 +8.8005519107e+03 9.9753823882e+03 7.9829010000e+01 0.0000e+00 -1.0000e+00
       22  1    1    2    0    0 -2.2749217580e+03 -3.4325689643e+03 -7.8509149995e+03 8.8653632204e+03 0.0000000000e+00 0.0000e+00 -1.0000e+00
       22  1    1    2    0    0 -1.2257119925e+02 +1.3194994144e+01 -1.3845641748e+02 1.8538604666e+02 0.0000000000e+00 0.0000e+00 -1.0000e+00
</event>
<event>
 6      1 +1.4834189e-01 1.01332200e+04 7.81653100e-03 6.93074300e-02
  1000022 -1    0    0    0    0 +0.0000000000e+00 +0.0000000000e+00 +4.4721471353e+01 1.0000100000e+04 1.0000000000e+04 0.0000e+00 -1.0000e+00
  1000022 -1    0    0    0    0 -0.0000000000e+00 -0.0000000000e+00 -4.4721471353e+01 1.0000100000e+04 1.0000000000e+04 0.0000e+00 -1.0000e+00
      -24  1    1    2    0    0 -8.5482238990e+02 -1.4572344984e+03 +2.5651930394e+02 1.7106807200e+03 7.9829010000e+01 0.0000e+00 1.0000e+00
       24  1    1    2    0    0 +7.7587668665e+03 +5.7574691912e+03 +1.7121973324e+03 9.8124873071e+03 7.9829010000e+01 0.0000e+00 1.0000e+00
       22  1    1    2    0    0 -6.9479505763e+03 -4.3316923464e+03 -1.9752633483e+03 8.4225436235e+03 0.0000000000e+00 0.0000e+00 1.0000e+00
       22  1    1    2    0    0 +4.4006099706e+01 +3.1457653689e+01 +6.5467119323e+00 5.4488349434e+01 0.0000000000e+00 0.0000e+00 1.0000e+00
</event>
<event>
 6      1 +1.4834189e-01 1.00657100e+04 7.81653100e-03 6.93477300e-02
  1000022 -1    0    0    0    0 +0.0000000000e+00 +0.0000000000e+00 +4.4721471353e+01 1.0000100000e+04 1.0000000000e+04 0.0000e+00 1.0000e+00
  1000022 -1    0    0    0    0 -0.0000000000e+00 -0.0000000000e+00 -4.4721471353e+01 1.0000100000e+04 1.0000000000e+04 0.0000e+00 1.0000e+00
      -24  1    1    2    0    0 +4.7245247789e+03 +4.0877381063e+03 -7.3973177050e+03 9.6828414793e+03 7.9829010000e+01 0.0000e+00 1.0000e+00
       24  1    1    2    0    0 -4.5960018709e+03 -3.9555817123e+03 +7.6339120376e+03 9.7495048874e+03 7.9829010000e+01 0.0000e+00 1.0000e+00
       22  1    1    2    0    0 -2.4507496637e+02 -1.9840223072e+02 -2.3624955989e+01 3.1620139601e+02 0.0000000000e+00 0.0000e+00 -1.0000e+00
       22  1    1    2    0    0 +1.1655205832e+02 +6.6245836668e+01 -2.1296937662e+02 2.5165223733e+02 0.0000000000e+00 0.0000e+00 1.0000e+00
</event>
<event>
 6      1 +1.4834189e-01 1.00058900e+04 7.81653100e-03 6.93837000e-02
  1000022 -1    0    0    0    0 +0.0000000000e+00 +0.0000000000e+00 +4.4721471353e+01 1.0000100000e+04 1.0000000000e+04 0.0000e+00 1.0000e+00
  1000022 -1    0    0    0    0 -0.0000000000e+00 -0.0000000000e+00 -4.4721471353e+01 1.0000100000e+04 1.0000000000e+04 0.0000e+00 1.0000e+00
      -24  1    1    2    0    0 -7.1757032903e+03 -6.9408583313e+03 -4.6213244585e+02 9.9943069371e+03 7.9829010000e+01 0.0000e+00 1.0000e+00
       24  1    1    2    0    0 +4.8346263801e+03 +4.6505207523e+03 +1.0968313140e+02 6.7096466794e+03 7.9829010000e+01 0.0000e+00 1.0000e+00
       22  1    1    2    0    0 +2.3306298493e+03 +2.2802147957e+03 +3.4222332320e+02 3.2784648559e+03 0.0000000000e+00 0.0000e+00 1.0000e+00
       22  1    1    2    0    0 +1.0447060908e+01 +1.0122783304e+01 +1.0225991252e+01 1.7781527509e+01 0.0000000000e+00 0.0000e+00 -1.0000e+00
</event>
<event>
 6      1 +1.4834189e-01 7.16416500e+03 7.81653100e-03 7.14620400e-02
  1000022 -1    0    0    0    0 +0.0000000000e+00 +0.0000000000e+00 +4.4721471353e+01 1.0000100000e+04 1.0000000000e+04 0.0000e+00 -1.0000e+00
  1000022 -1    0    0    0    0 -0.0000000000e+00 -0.0000000000e+00 -4.4721471353e+01 1.0000100000e+04 1.0000000000e+04 0.0000e+00 -1.0000e+00
      -24  1    1    2    0    0 +3.5663079267e+03 -1.0594169969e+03 +3.1427737504e+03 4.8707613489e+03 7.9829010000e+01 0.0000e+00 -1.0000e+00
       24  1    1    2    0    0 +4.0735844905e+03 +3.6053409247e+03 -4.0948257407e+03 6.8092983708e+03 7.9829010000e+01 0.0000e+00 1.0000e+00
       22  1    1    2    0    0 -7.7261942267e+03 -2.5854920917e+03 +1.0087911364e+03 8.2095375108e+03 0.0000000000e+00 0.0000e+00 1.0000e+00
       22  1    1    2    0    0 +8.6301809455e+01 +3.9568163949e+01 -5.6739146067e+01 1.1060276945e+02 0.0000000000e+00 0.0000e+00 -1.0000e+00
</event>
<event>
 6      1 +1.4834189e-01 1.00161600e+04 7.81653100e-03 6.93775100e-02
  1000022 -1    0    0    0    0 +0.0000000000e+00 +0.0000000000e+00 +4.4721471353e+01 1.0000100000e+04 1.0000000000e+04 0.0000e+00 -1.0000e+00
  1000022 -1    0    0    0    0 -0.0000000000e+00 -0.0000000000e+00 -4.4721471353e+01 1.0000100000e+04 1.0000000000e+04 0.0000e+00 -1.0000e+00
      -24  1    1    2    0    0 +4.4961593593e+02 +1.6377939825e+03 +6.4252911098e+02 1.8176193078e+03 7.9829010000e+01 0.0000e+00 1.0000e+00
       24  1    1    2    0    0 -1.0336354085e+03 -8.8787628520e+03 -4.3958011109e+03 9.9614392543e+03 7.9829010000e+01 0.0000e+00 1.0000e+00
       22  1    1    2    0    0 +5.8781859110e+02 +7.2627184748e+03 +3.7581132010e+03 8.1985379899e+03 0.0000000000e+00 0.0000e+00 1.0000e+00
       22  1    1    2    0    0 -3.7991184881e+00 -2.1749605270e+01 -4.8412010902e+00 2.2603447938e+01 0.0000000000e+00 0.0000e+00 -1.0000e+00
</event>
<event>
 6      1 +1.4834189e-01 1.00004800e+04 7.81653100e-03 6.93869700e-02
  1000022 -1    0    0    0    0 +0.0000000000e+00 +0.0000000000e+00 +4.4721471353e+01 1.0000100000e+04 1.0000000000e+04 0.0000e+00 -1.0000e+00
  1000022 -1    0    0    0    0 -0.0000000000e+00 -0.0000000000e+00 -4.4721471353e+01 1.0000100000e+04 1.0000000000e+04 0.0000e+00 -1.0000e+00
      -24  1    1    2    0    0 -7.4491838692e+03 +4.9568495481e+03 +1.5800358753e+03 9.0864505610e+03 7.9829010000e+01 0.0000e+00 1.0000e+00
       24  1    1    2    0    0 +7.4653354091e+03 -4.9436676995e+03 -1.5522894752e+03 9.0877422047e+03 7.9829010000e+01 0.0000e+00 1.0000e+00
       22  1    1    2    0    0 -7.8303245783e+02 +4.4518499848e+02 +1.5528995991e+02 9.1402652289e+02 0.0000000000e+00 0.0000e+00 1.0000e+00
       22  1    1    2    0    0 +7.6688091795e+02 -4.5836684716e+02 -1.8303636008e+02 9.1198071142e+02 0.0000000000e+00 0.0000e+00 -1.0000e+00
</event>
<event>
 6      1 +1.4834189e-01 1.00063700e+04 7.81653100e-03 6.93834100e-02
  1000022 -1    0    0    0    0 +0.0000000000e+00 +0.0000000000e+00 +4.4721471353e+01 1.0000100000e+04 1.0000000000e+04 0.0000e+00 -1.0000e+00
  1000022 -1    0    0    0    0 -0.0000000000e+00 -0.0000000000e+00 -4.4721471353e+01 1.0000100000e+04 1.0000000000e+04 0.0000e+00 -1.0000e+00
      -24  1    1    2    0    0 +7.5331425304e+03 +1.8433547963e+03 -3.6770035222e+03 8.5832931246e+03 7.9829010000e+01 0.0000e+00 -1.0000e+00
       24  1    1    2    0    0 -3.3922462773e+03 -7.4552606433e+02 +1.8979586081e+03 3.9587578188e+03 7.9829010000e+01 0.0000e+00 -1.0000e+00
       22  1    1    2    0    0 -5.3678444484e+03 -1.4314379901e+03 +2.3897253458e+03 6.0476074583e+03 0.0000000000e+00 0.0000e+00 -1.0000e+00
       22  1    1    2    0    0 +1.2269481953e+03 +3.3360925814e+02 -6.1068043172e+02 1.4105415984e+03 0.0000000000e+00 0.0000e+00 1.0000e+00
</event>
<event>
 6      1 +1.4834189e-01 1.00035300e+04 7.81653100e-03 6.93851200e-02
  1000022 -1    0    0    0    0 +0.0000000000e+00 +0.0000000000e+00 +4.4721471353e+01 1.0000100000e+04 1.0000000000e+04 0.0000e+00 -1.0000e+00
  1000022 -1    0    0    0    0 -0.0000000000e+00 -0.0000000000e+00 -4.4721471353e+01 1.0000100000e+04 1.0000000000e+04 0.0000e+00 -1.0000e+00
      -24  1    1    2    0    0 -2.7207372257e+03 -7.0277541199e+03 -5.3484488132e+03 9.2414293483e+03 7.9829010000e+01 0.0000e+00 -1.0000e+00
       24  1    1    2    0    0 +2.9589954499e+03 +7.5743470491e+03 +5.8138320145e+03 9.9966695782e+03 7.9829010000e+01 0.0000e+00 -1.0000e+00
       22  1    1    2    0    0 -8.8079187945e+00 -3.7084168770e+01 -6.2541633732e+01 7.3241183474e+01 0.0000000000e+00 0.0000e+00 -1.0000e+00
       22  1    1    2    0    0 -2.2945030536e+02 -5.0950876043e+02 -4.0284156752e+02 6.8885989004e+02 0.0000000000e+00 0.0000e+00 -1.0000e+00
</event>
<event>
 6      1 +1.4834189e-01 1.00014500e+04 7.81653100e-03 6.93863800e-02
  1000022 -1    0    0    0    0 +0.0000000000e+00 +0.0000000000e+00 +4.4721471353e+01 1.0000100000e+04 1.0000000000e+04 0.0000e+00 -1.0000e+00
  1000022 -1    0    0    0    0 -0.0000000000e+00 -0.0000000000e+00 -4.4721471353e+01 1.0000100000e+04 1.0000000000e+04 0.0000e+00 -1.0000e+00
      -24  1    1    2    0    0 -3.3885160848e+03 -3.3857329034e+03 +8.7157864910e+03 9.9456792316e+03 7.9829010000e+01 0.0000e+00 -1.0000e+00
       24  1    1    2    0    0 +3.1439008992e+03 +3.1024383565e+03 -8.2247850950e+03 9.3360965692e+03 7.9829010000e+01 0.0000e+00 -1.0000e+00
       22  1    1    2    0    0 +2.5544639541e+02 +2.8784273496e+02 -5.4275784161e+02 6.6535131744e+02 0.0000000000e+00 0.0000e+00 1.0000e+00
       22  1    1    2    0    0 -1.0831209815e+01 -4.5481880614e+00 +5.1756445611e+01 5.3072881804e+01 0.0000000000e+00 0.0000e+00 1.0000e+00
</event>
<event>
 6      1 +1.4834189e-01 1.04664700e+04 7.81653100e-03 6.91130600e-02
  1000022 -1    0    0    0    0 +0.0000000000e+00 +0.0000000000e+00 +4.4721471353e+01 1.0000100000e+04 1.0000000000e+04 0.0000e+00 1.0000e+00
  1000022 -1    0    0    0    0 -0.0000000000e+00 -0.0000000000e+00 -4.4721471353e+01 1.0000100000e+04 1.0000000000e+04 0.0000e+00 1.0000e+00
      -24  1    1    2    0    0 -3.8048173276e+03 +3.6014155467e+03 +7.4383477505e+03 9.0984734305e+03 7.9829010000e+01 0.0000e+00 1.0000e+00
       24  1    1    2    0    0 +6.6061255170e+02 -2.2724520723e+03 -5.8899556817e+03 6.3481019185e+03 7.9829010000e+01 0.0000e+00 1.0000e+00
       22  1    1    2    0    0 -1.8824119321e+02 +1.6242930428e+02 +3.5725575909e+02 4.3525820281e+02 0.0000000000e+00 0.0000e+00 1.0000e+00
       22  1    1    2    0    0 +3.3324459691e+03 -1.4913927787e+03 -1.9056478279e+03 4.1183664482e+03 0.0000000000e+00 0.0000e+00 1.0000e+00
</event>
<event>
 6      1 +1.4834189e-01 1.00164100e+04 7.81653100e-03 6.93773600e-02
  1000022 -1    0    0    0    0 +0.0000000000e+00 +0.0000000000e+00 +4.4721471353e+01 1.0000100000e+04 1.0000000000e+04 0.0000e+00 1.0000e+00
  1000022 -1    0    0    0    0 -0.0000000000e+00 -0.0000000000e+00 -4.4721471353e+01 1.0000100000e+04 1.0000000000e+04 0.0000e+00 1.0000e+00
      -24  1    1    2    0    0 -8.3280167160e+03 +2.5011457429e+01 -4.8591627509e+03 9.6423193945e+03 7.9829010000e+01 0.0000e+00 -1.0000e+00
       24  1    1    2    0    0 +8.6800401037e+03 -4.9051355233e+01 +4.9319573032e+03 9.9837907504e+03 7.9829010000e+01 0.0000e+00 -1.0000e+00
       22  1    1    2    0    0 -1.9646716242e+01 -5.9935564758e+00 -3.1791066305e+01 3.7849545244e+01 0.0000000000e+00 0.0000e+00 -1.0000e+00
       22  1    1    2    0    0 -3.3237667140e+02 +3.0033454280e+01 -4.1003486056e+01 3.3624030980e+02 0.0000000000e+00 0.0000e+00 1.0000e+00
</event>
<event>
 6      1 +1.4834189e-01 1.01377000e+04 7.81653100e-03 6.93047700e-02
  1000022 -1    0    0    0    0 +0.0000000000e+00 +0.0000000000e+00 +4.4721471353e+01 1.0000100000e+04 1.0000000000e+04 0.0000e+00 1.0000e+00
  1000022 -1    0    0    0    0 -0.0000000000e+00 -0.0000000000e+00 -4.4721471353e+01 1.0000100000e+04 1.0000000000e+04 0.0000e+00 1.0000e+00
      -24  1    1    2    0    0 +1.6661344804e+03 -1.3194265007e+03 +5.4660090132e+03 5.8651954444e+03 7.9829010000e+01 0.0000e+00 1.0000e+00
       24  1    1    2    0    0 -9.4330069852e+02 +1.8914748050e+03 -9.6330141906e+03 9.8624960437e+03 7.9829010000e+01 0.0000e+00 1.0000e+00
       22  1    1    2    0    0 -7.3539752881e+02 -5.6413384022e+02 +4.1279881374e+03 4.2307614654e+03 0.0000000000e+00 0.0000e+00 1.0000e+00
       22  1    1    2    0    0 +1.2563746941e+01 -7.9144640835e+00 +3.9017039945e+01 4.1747046422e+01 0.0000000000e+00 0.0000e+00 -1.0000e+00
</event>
<event>
 6      1 +1.4834189e-01 1.00134300e+04 7.81653100e-03 6.93791500e-02
  1000022 -1    0    0    0    0 +0.0000000000e+00 +0.0000000000e+00 +4.4721471353e+01 1.0000100000e+04 1.0000000000e+04 0.0000e+00 -1.0000e+00
  1000022 -1    0    0    0    0 -0.0000000000e+00 -0.0000000000e+00 -4.4721471353e+01 1.0000100000e+04 1.0000000000e+04 0.0000e+00 -1.0000e+00
      -24  1    1    2    0    0 -4.0514647528e+03 -8.8859793701e+03 -1.5490117134e+03 9.8884177687e+03 7.9829010000e+01 0.0000e+00 1.0000e+00
       24  1    1    2    0    0 +4.1036290007e+03 +8.9539787814e+03 +1.5923277812e+03 9.9777446063e+03 7.9829010000e+01 0.0000e+00 1.0000e+00
       22  1    1    2    0    0 -4.0031888576e+01 -8.8289685350e+01 -1.6580616528e+01 9.8349059409e+01 0.0000000000e+00 0.0000e+00 1.0000e+00
       22  1    1    2    0    0 -1.2132359369e+01 +2.0290274026e+01 -2.6735451244e+01 3.5688565636e+01 0.0000000000e+00 0.0000e+00 1.0000e+00
</event>
<event>
 6      1 +1.4834189e-01 1.02723000e+04 7.81653100e-03 6.92254100e-02
  1000022 -1    0    0    0    0 +0.0000000000e+00 +0.0000000000e+00 +4.4721471353e+01 1.0000100000e+04 1.0000000000e+04 0.0000e+00 -1.0000e+00
  1000022 -1    0    0    0    0 -0.0000000000e+00 -0.0000000000e+00 -4.4721471353e+01 1.0000100000e+04 1.0000000000e+04 0.0000e+00 -1.0000e+00
      -24  1    1    2    0    0 -2.1029505935e+01 -3.7989020813e+03 -8.9550846995e+03 9.7278987407e+03 7.9829010000e+01 0.0000e+00 1.0000e+00
       24  1    1    2    0    0 -2.2407685886e+02 +2.9837599256e+03 +3.9418512924e+03 4.9495048252e+03 7.9829010000e+01 0.0000e+00 1.0000e+00
       22  1    1    2    0    0 +5.5715497140e+02 -2.8969592594e+02 +1.4797566701e+03 1.6074903403e+03 0.0000000000e+00 0.0000e+00 -1.0000e+00
       22  1    1    2    0    0 -3.1204860660e+02 +1.1048380816e+03 +3.5334767370e+03 3.7153060938e+03 0.0000000000e+00 0.0000e+00 1.0000e+00
</event>
<event>
 6      1 +1.4834189e-01 8.11113200e+03 7.81653100e-03 7.06751400e-02
  1000022 -1    0    0    0    0 +0.0000000000e+00 +0.0000000000e+00 +4.4721471353e+01 1.0000100000e+04 1.0000000000e+04 0.0000e+00 1.0000e+00
  1000022 -1    0    0    0    0 -0.0000000000e+00 -0.0000000000e+00 -4.4721471353e+01 1.0000100000e+04 1.0000000000e+04 0.0000e+00 1.0000e+00
      -24  1    1    2    0    0 +6.5249585898e+03 +5.4291754587e+03 -6.7209078639e+02 8.5152280918e+03 7.9829010000e+01 0.0000e+00 1.0000e+00
       24  1    1    2    0    0 +1.3005553200e+00 -2.0071866763e+03 +2.8498161221e+03 3.4866351466e+03 7.9829010000e+01 0.0000e+00 1.0000e+00
       22  1    1    2    0    0 -6.5508016069e+03 -3.6237383092e+03 -2.0647109332e+03 7.7657911551e+03 0.0000000000e+00 0.0000e+00 1.0000e+00
       22  1    1    2    0    0 +2.4542461789e+01 +2.0174952673e+02 -1.1301440245e+02 2.3254560655e+02 0.0000000000e+00 0.0000e+00 1.0000e+00
</event>
<event>
 6      1 +1.4834189e-01 1.00113000e+04 7.81653100e-03 6.93804300e-02
  1000022 -1    0    0    0    0 +0.0000000000e+00 +0.0000000000e+00 +4.4721471353e+01 1.0000100000e+04 1.0000000000e+04 0.0000e+00 1.0000e+00
  1000022 -1    0    0    0    0 -0.0000000000e+00 -0.0000000000e+00 -4.4721471353e+01 1.0000100000e+04 1.0000000000e+04 0.0000e+00 1.0000e+00
      -24  1    1    2    0    0 +8.9363540758e+03 -3.5742194695e+02 -4.0173427410e+03 9.8046718449e+03 7.9829010000e+01 0.0000e+00 1.0000e+00
       24  1    1    2    0    0 -9.1124260271e+03 +4.4343688655e+02 +4.0667822750e+03 9.9888955904e+03 7.9829010000e+01 0.0000e+00 1.0000e+00
       22  1    1    2    0    0 +1.5596333195e+02 -8.2541037218e+01 -3.1063800869e+01 1.7917182664e+02 0.0000000000e+00 0.0000e+00 -1.0000e+00
       22  1    1    2    0    0 +2.0108619322e+01 -3.4739023856e+00 -1.8375733097e+01 2.7460738076e+01 0.0000000000e+00 0.0000e+00 -1.0000e+00
</event>
<event>
 6      1 +1.4834189e-01 1.00517600e+04 7.81653100e-03 6.93560900e-02
  1000022 -1    0    0    0    0 +0.0000000000e+00 +0.0000000000e+00 +4.4721471353e+01 1.0000100000e+04 1.0000000000e+04 0.0000e+00 1.0000e+00
  1000022 -1    0    0    0    0 -0.0000000000e+00 -0.0000000000e+00 -4.4721471353e+01 1.0000100000e+04 1.0000000000e+04 0.0000e+00 1.0000e+00
      -24  1    1    2    0    0 -3.7880243784e+03 +4.0508099113e+03 +7.7222257251e+03 9.5077511773e+03 7.9829010000e+01 0.0000e+00 -1.0000e+00
       24  1    1    2    0    0 +1.1633019138e+03 -1.1916074535e+03 -2.3696866406e+03 2.8974104147e+03 7.9829010000e+01 0.0000e+00 -1.0000e+00
       22  1    1    2    0    0 +2.8844928237e+03 -2.7483546499e+03 -5.8174923238e+03 7.0510261005e+03 0.0000000000e+00 0.0000e+00 -1.0000e+00
       22  1    1    2    0    0 -2.5977035911e+02 -1.1084780786e+02 +4.6495323935e+02 5.4401230755e+02 0.0000000000e+00 0.0000e+00 -1.0000e+00
</event>
<event>
 6      1 +1.4834189e-01 1.00546100e+04 7.81653100e-03 6.93543900e-02
  1000022 -1    0    0    0    0 +0.0000000000e+00 +0.0000000000e+00 +4.4721471353e+01 1.0000100000e+04 1.0000000000e+04 0.0000e+00 1.0000e+00
  1000022 -1    0    0    0    0 -0.0000000000e+00 -0.0000000000e+00 -4.4721471353e+01 1.0000100000e+04 1.0000000000e+04 0.0000e+00 1.0000e+00
      -24  1    1    2    0    0 +3.3747633588e+03 +6.3444090178e+03 -1.7861584483e+03 7.4052203334e+03 7.9829010000e+01 0.0000e+00 -1.0000e+00
       24  1    1    2    0    0 +5.7505631448e+01 -5.9636226243e+02 +4.2169877995e+02 7.3699211498e+02 7.9829010000e+01 0.0000e+00 -1.0000e+00
       22  1    1    2    0    0 +1.6591127433e+03 +1.9224624012e+03 -7.0494733901e+01 2.5403712891e+03 0.0000000000e+00 0.0000e+00 -1.0000e+00
       22  1    1    2    0    0 -5.0913817336e+03 -7.6705091566e+03 +1.4349544023e+03 9.3176162625e+03 0.0000000000e+00 0.0000e+00 -1.0000e+00
</event>
<event>
 6      1 +1.4834189e-01 1.00076500e+04 7.81653100e-03 6.93826400e-02
  1000022 -1    0    0    0    0 +0.0000000000e+00 +0.0000000000e+00 +4.4721471353e+01 1.0000100000e+04 1.0000000000e+04 0.0000e+00 -1.0000e+00
  1000022 -1    0    0    0    0 -0.0000000000e+00 -0.0000000000e+00 -4.4721471353e+01 1.0000100000e+04 1.0000000000e+04 0.0000e+00 -1.0000e+00
      -24  1    1    2    0    0 +9.1870403161e+03 +4.5627515415e+02 -3.8275880831e+03 9.9632675358e+03 7.9829010000e+01 0.0000e+00 1.0000e+00
       24  1    1    2    0    0 -5.7632513872e+03 -3.0222274744e+02 +2.1115234432e+03 6.1458367260e+03 7.9829010000e+01 0.0000e+00 1.0000e+00
       22  1    1    2    0    0 -3.4514303141e+03 -1.5692159081e+02 +1.7252884265e+03 3.8618150853e+03 0.0000000000e+00 0.0000e+00 1.0000e+00
       22  1    1    2    0    0 +2.7641385162e+01 +2.8691841002e+00 -9.2237865978e+00 2.9280652832e+01 0.0000000000e+00 0.0000e+00 -1.0000e+00
</event>
<event>
 6      1 +1.4834189e-01 1.00037000e+04 7.81653100e-03 6.93850200e-02
  1000022 -1    0    0    0    0 +0.0000000000e+00 +0.0000000000e+00 +4.4721471353e+01 1.0000100000e+04 1.0000000000e+04 0.0000e+00 -1.0000e+00
  1000022 -1    0    0    0    0 -0.0000000000e+00 -0.0000000000e+00 -4.4721471353e+01 1.0000100000e+04 1.0000000000e+04 0.0000e+00 -1.0000e+00
      -24  1    1    2    0    0 -4.0463642530e+03 +7.0975543812e+03 +5.7598023652e+03 9.9965012789e+03 7.9829010000e+01 0.0000e+00 -1.0000e+00
       24  1    1    2    0    0 +5.9757436058e+02 -9.9924806293e+02 -9.2458981866e+02 1.4889025527e+03 7.9829010000e+01 0.0000e+00 0.0000e+00
       22  1    1    2    0    0 +1.2641487310e+00 -1.1247079419e+01 -8.7202961052e-01 1.1351444979e+01 0.0000000000e+00 0.0000e+00 1.0000e+00
       22  1    1    2    0    0 +3.4475257437e+03 -6.0870592389e+03 -4.8343405169e+03 8.5034447234e+03 0.0000000000e+00 0.0000e+00 -1.0000e+00
</event>
<event>
 6      1 +1.4834189e-01 1.00018600e+04 7.81653100e-03 6.93861300e-02
  1000022 -1    0    0    0    0 +0.0000000000e+00 +0.0000000000e+00 +4.4721471353e+01 1.0000100000e+04 1.0000000000e+04 0.0000e+00 1.0000e+00
  1000022 -1    0    0    0    0 -0.0000000000e+00 -0.0000000000e+00 -4.4721471353e+01 1.0000100000e+04 1.0000000000e+04 0.0000e+00 1.0000e+00
      -24  1    1    2    0    0 -7.2434689476e+03 +4.2534613182e+03 +5.3538758311e+03 9.9614323601e+03 7.9829010000e+01 0.0000e+00 -1.0000e+00
       24  1    1    2    0    0 +5.0053403800e+03 -3.0866164310e+03 -3.7756097707e+03 6.9887219950e+03 7.9829010000e+01 0.0000e+00 -1.0000e+00
       22  1    1    2    0    0 -2.9913712398e+01 +7.9936156354e+00 +2.0087529601e+01 3.6908493953e+01 0.0000000000e+00 0.0000e+00 1.0000e+00
       22  1    1    2    0    0 +2.2680422800e+03 -1.1748385029e+03 -1.5983535899e+03 3.0131371509e+03 0.0000000000e+00 0.0000e+00 -1.0000e+00
</event>
<event>
 6      1 +1.4834189e-01 1.00004500e+04 7.81653100e-03 6.93869900e-02
  1000022 -1    0    0    0    0 +0.0000000000e+00 +0.0000000000e+00 +4.4721471353e+01 1.0000100000e+04 1.0000000000e+04 0.0000e+00 -1.0000e+00
  1000022 -1    0    0    0    0 -0.0000000000e+00 -0.0000000000e+00 -4.4721471353e+01 1.0000100000e+04 1.0000000000e+04 0.0000e+00 -1.0000e+00
      -24  1    1    2    0    0 -7.8477068343e+03 -2.8327440244e+03 +4.1643050729e+03 9.3251675951e+03 7.9829010000e+01 0.0000e+00 -1.0000e+00
       24  1    1    2    0    0 +3.6086817390e+03 +1.3795017587e+03 -1.7989692148e+03 4.2624255891e+03 7.9829010000e+01 0.0000e+00 -1.0000e+00
       22  1    1    2    0    0 +4.7984979881e+03 +1.7208607650e+03 -2.6324888844e+03 5.7373288594e+03 0.0000000000e+00 0.0000e+00 -1.0000e+00
       22  1    1    2    0    0 -5.5947289282e+02 -2.6761849922e+02 +2.6715302630e+02 6.7527795639e+02 0.0000000000e+00 0.0000e+00 1.0000e+00
</event>
<event>
 6      1 +1.4834189e-01 1.00009000e+04 7.81653100e-03 6.93867100e-02
  1000022 -1    0    0    0    0 +0.0000000000e+00 +0.0000000000e+00 +4.4721471353e+01 1.0000100000e+04 1.0000000000e+04 0.0000e+00 -1.0000e+00
  1000022 -1    0    0    0    0 -0.0000000000e+00 -0.0000000000e+00 -4.4721471353e+01 1.0000100000e+04 1.0000000000e+04 0.0000e+00 -1.0000e+00
      -24  1    1    2    0    0 -9.5935567046e+03 +1.8393614137e+03 +3.3266656537e+02 9.7742836244e+03 7.9829010000e+01 0.0000e+00 1.0000e+00
       24  1    1    2    0    0 +9.8161373830e+03 -1.8735613142e+03 -3.3596037537e+02 9.9993013338e+03 7.9829010000e+01 0.0000e+00 1.0000e+00
       22  1    1    2    0    0 -2.0990714488e+02 +3.7937695394e+01 +1.7799572082e+00 2.1331536853e+02 0.0000000000e+00 0.0000e+00 -1.0000e+00
       22  1    1    2    0    0 -1.2673533461e+01 -3.7377948470e+00 +1.5138527924e+00 1.3299673341e+01 0.0000000000e+00 0.0000e+00 1.0000e+00
</event>
<event>
 6      1 +1.4834189e-01 1.00096700e+04 7.81653100e-03 6.93814200e-02
  1000022 -1    0    0    0    0 +0.0000000000e+00 +0.0000000000e+00 +4.4721471353e+01 1.0000100000e+04 1.0000000000e+04 0.0000e+00 1.0000e+00
  1000022 -1    0    0    0    0 -0.0000000000e+00 -0.0000000000e+00 -4.4721471353e+01 1.0000100000e+04 1.0000000000e+04 0.0000e+00 1.0000e+00
      -24  1    1    2    0    0 -7.2148152686e+03 -6.9079377536e+03 +1.7654000491e+02 9.9905306371e+03 7.9829010000e+01 0.0000e+00 -1.0000e+00
       24  1    1    2    0    0 +6.0610457256e+03 +5.7485946339e+03 +9.2296327720e-01 8.3539804331e+03 7.9829010000e+01 0.0000e+00 -1.0000e+00
       22  1    1    2    0    0 +1.1360709620e+03 +1.0894114114e+03 -1.7112254171e+02 1.5832742587e+03 0.0000000000e+00 0.0000e+00 1.0000e+00
       22  1    1    2    0    0 +1.7698580903e+01 +6.9931708273e+01 -6.3404264817e+00 7.2414671137e+01 0.0000000000e+00 0.0000e+00 1.0000e+00
</event>
<event>
 6      1 +1.4834189e-01 1.01408200e+04 7.81653100e-03 6.93029200e-02
  1000022 -1    0    0    0    0 +0.0000000000e+00 +0.0000000000e+00 +4.4721471353e+01 1.0000100000e+04 1.0000000000e+04 0.0000e+00 1.0000e+00
  1000022 -1    0    0    0    0 -0.0000000000e+00 -0.0000000000e+00 -4.4721471353e+01 1.0000100000e+04 1.0000000000e+04 0.0000e+00 1.0000e+00
      -24  1    1    2    0    0 +2.6201618915e+03 -1.7121719450e+02 +3.4196997173e+03 4.3122247730e+03 7.9829010000e+01 0.0000e+00 1.0000e+00
       24  1    1    2    0    0 -7.8111656893e+03 +2.5876239828e+02 -5.8453850950e+03 9.7599265870e+03 7.9829010000e+01 0.0000e+00 -1.0000e+00
       22  1    1    2    0    0 +5.2738199752e+03 -9.7236671191e+01 +2.4798952189e+03 5.8285943758e+03 0.0000000000e+00 0.0000e+00 -1.0000e+00
       22  1    1    2    0    0 -8.2816177427e+01 +9.6914674060e+00 -5.4209841231e+01 9.9454264215e+01 0.0000000000e+00 0.0000e+00 1.0000e+00
</event>
<event>
 6      1 +1.4834189e-01 1.00017100e+04 7.81653100e-03 6.93862200e-02
  1000022 -1    0    0    0    0 +0.0000000000e+00 +0.0000000000e+00 +4.4721471353e+01 1.0000100000e+04 1.0000000000e+04 0.0000e+00 -1.0000e+00
  1000022 -1    0    0    0    0 -0.0000000000e+00 -0.0000000000e+00 -4.4721471353e+01 1.0000100000e+04 1.0000000000e+04 0.0000e+00 -1.0000e+00
      -24  1    1    2    0    0 +1.6612143631e+03 -4.1344356248e+03 -8.8895677763e+03 9.9440423881e+03 7.9829010000e+01 0.0000e+00 -1.0000e+00
       24  1    1    2    0    0 -1.5267655511e+03 +3.9410914739e+03 +8.4809739712e+03 9.4761019003e+03 7.9829010000e+01 0.0000e+00 -1.0000e+00
       22  1    1    2    0    0 +9.2591752503e+00 -2.6225503993e+01 -4.6813884632e+01 5.4452265153e+01 0.0000000000e+00 0.0000e+00 -1.0000e+00
       22  1    1    2    0    0 -1.4370798726e+02 +2.1956965495e+02 +4.5540768977e+02 5.2560344641e+02 0.0000000000e+00 0.0000e+00 -1.0000e+00
</event>
<event>
 6      1 +1.4834189e-01 1.06600900e+04 7.81653100e-03 6.90034400e-02
  1000022 -1    0    0    0    0 +0.0000000000e+00 +0.0000000000e+00 +4.4721471353e+01 1.0000100000e+04 1.0000000000e+04 0.0000e+00 -1.0000e+00
  1000022 -1    0    0    0    0 -0.0000000000e+00 -0.0000000000e+00 -4.4721471353e+01 1.0000100000e+04 1.0000000000e+04 0.0000e+00 -1.0000e+00
      -24  1    1    2    0    0 -1.2609545995e+03 +3.0162121029e+02 -5.9450071717e+02 1.4285606848e+03 7.9829010000e+01 0.0000e+00 0.0000e+00
       24  1    1    2    0    0 +6.2691984264e+03 -3.7446071058e+03 +2.5688014074e+03 7.7414497755e+03 7.9829010000e+01 0.0000e+00 1.0000e+00
       22  1    1    2    0    0 -6.7065575149e+03 +1.8739554702e+03 -3.7554008868e+03 7.9115522260e+03 0.0000000000e+00 0.0000e+00 1.0000e+00
       22  1    1    2    0    0 +1.6983136880e+03 +1.5690304253e+03 +1.7811001966e+03 2.9186373136e+03 0.0000000000e+00 0.0000e+00 1.0000e+00
</event>
<event>
 6      1 +1.4834189e-01 1.06939000e+04 7.81653100e-03 6.89845400e-02
  1000022 -1    0    0    0    0 +0.0000000000e+00 +0.0000000000e+00 +4.4721471353e+01 1.0000100000e+04 1.0000000000e+04 0.0000e+00 1.0000e+00
  1000022 -1    0    0    0    0 -0.0000000000e+00 -0.0000000000e+00 -4.4721471353e+01 1.0000100000e+04 1.0000000000e+04 0.0000e+00 1.0000e+00
      -24  1    1    2    0    0 +2.4913125227e+03 -5.0428830731e+03 +6.4622598758e+03 8.5676416328e+03 7.9829010000e+01 0.0000e+00 1.0000e+00
       24  1    1    2    0    0 -6.3606621073e+02 +5.6685882003e+03 -7.0884060697e+03 9.0988650770e+03 7.9829010000e+01 0.0000e+00 1.0000e+00
       22  1    1    2    0    0 -1.8271903040e+03 -7.3899185725e+02 +7.9763847711e+02 2.1262550440e+03 0.0000000000e+00 0.0000e+00 -1.0000e+00
       22  1    1    2    0    0 -2.8056008032e+01 +1.1328672999e+02 -1.7149228327e+02 2.0743824623e+02 0.0000000000e+00 0.0000e+00 1.0000e+00
</event>
<event>
 6      1 +1.4834189e-01 1.00147600e+04 7.81653100e-03 6.93783500e-02
  1000022 -1    0    0    0    0 +0.0000000000e+00 +0.0000000000e+00 +4.4721471353e+01 1.0000100000e+04 1.0000000000e+04 0.0000e+00 -1.0000e+00
  1000022 -1    0    0    0    0 -0.0000000000e+00 -0.0000000000e+00 -4.4721471353e+01 1.0000100000e+04 1.0000000000e+04 0.0000e+00 -1.0000e+00
      -24  1    1    2    0    0 -9.5670243311e+03 +1.6676172967e+03 -2.3224270290e+03 9.9854364940e+03 7.9829010000e+01 0.0000e+00 1.0000e+00
       24  1    1    2    0    0 +9.0852223483e+03 -1.5708981570e+03 +2.0853930529e+03 9.4532652027e+03 7.9829010000e+01 0.0000e+00 1.0000e+00
       22  1    1    2    0    0 +8.4724167917e+01 -6.9434388513e+01 +6.9040161190e+01 1.2948305987e+02 0.0000000000e+00 0.0000e+00 -1.0000e+00
       22  1    1    2    0    0 +3.9707781487e+02 -2.7284751247e+01 +1.6799381488e+02 4.3201524342e+02 0.0000000000e+00 0.0000e+00 1.0000e+00
</event>
<event>
 6      1 +1.4834189e-01 1.01342700e+04 7.81653100e-03 6.93068100e-02
  1000022 -1    0    0    0    0 +0.0000000000e+00 +0.0000000000e+00 +4.4721471353e+01 1.0000100000e+04 1.0000000000e+04 0.0000e+00 -1.0000e+00
  1000022 -1    0    0    0    0 -0.0000000000e+00 -0.0000000000e+00 -4.4721471353e+01 1.0000100000e+04 1.0000000000e+04 0.0000e+00 -1.0000e+00
      -24  1    1    2    0    0 +6.4997490441e+03 -3.5586783148e+03 +6.9665990444e+02 7.4432947461e+03 7.9829010000e+01 0.0000e+00 1.0000e+00
       24  1    1    2    0    0 -7.1346611685e+02 +2.2624322905e+02 -8.0726514546e+02 1.1037525015e+03 7.9829010000e+01 0.0000e+00 1.0000e+00
       22  1    1    2    0    0 +1.8042553999e+03 -1.5464785062e+03 +4.7140988588e+02 2.4226350527e+03 0.0000000000e+00 0.0000e+00 -1.0000e+00
       22  1    1    2    0    0 -7.5905383271e+03 +4.8789135919e+03 -3.6080464486e+02 9.0305176997e+03 0.0000000000e+00 0.0000e+00 1.0000e+00
</event>
<event>
 6      1 +1.4834189e-01 1.00035000e+04 7.81653100e-03 6.93851400e-02
  1000022 -1    0    0    0    0 +0.0000000000e+00 +0.0000000000e+00 +4.4721471353e+01 1.0000100000e+04 1.0000000000e+04 0.0000e+00 -1.0000e+00
  1000022 -1    0    0    0    0 -0.0000000000e+00 -0.0000000000e+00 -4.4721471353e+01 1.0000100000e+04 1.0000000000e+04 0.0000e+00 -1.0000e+00
      -24  1    1    2    0    0 +9.0446390992e+03 -2.2765228913e+03 +1.6681170749e+03 9.4750746781e+03 7.9829010000e+01 0.0000e+00 -1.0000e+00
       24  1    1    2    0    0 -8.6273831373e+03 +2.1567043158e+03 -1.5290108614e+03 9.0237109988e+03 7.9829010000e+01 0.0000e+00 -1.0000e+00
       22  1    1    2    0    0 -9.3051778125e+02 +2.4541876007e+02 -1.4357686287e+02 9.7298922120e+02 0.0000000000e+00 0.0000e+00 -1.0000e+00
       22  1    1    2    0    0 +5.1326181943e+02 -1.2560018459e+02 +4.4706493655e+00 5.2842510194e+02 0.0000000000e+00 0.0000e+00 -1.0000e+00
</event>
<event>
 6      1 +1.4834189e-01 1.00198600e+04 7.81653100e-03 6.93752800e-02
  1000022 -1    0    0    0    0 +0.0000000000e+00 +0.0000000000e+00 +4.4721471353e+01 1.0000100000e+04 1.0000000000e+04 0.0000e+00 1.0000e+00
  1000022 -1    0    0    0    0 -0.0000000000e+00 -0.0000000000e+00 -4.4721471353e+01 1.0000100000e+04 1.0000000000e+04 0.0000e+00 1.0000e+00
      -24  1    1    2    0    0 -4.5630081427e+03 +4.4736658854e+03 +5.3476411010e+03 8.3329687255e+03 7.9829010000e+01 0.0000e+00 1.0000e+00
       24  1    1    2    0    0 +6.7206931517e+02 -1.1322046422e+03 -8.9669842375e+02 1.5949938088e+03 7.9829010000e+01 0.0000e+00 1.0000e+00
       22  1    1    2    0    0 +4.3838283863e+03 -4.5702803687e+03 -5.4962426971e+03 8.3853501867e+03 0.0000000000e+00 0.0000e+00 1.0000e+00
       22  1    1    2    0    0 -4.9288955878e+02 +1.2288191254e+03 +1.0453000199e+03 1.6868872789e+03 0.0000000000e+00 0.0000e+00 1.0000e+00
</event>
<event>
 6      1 +1.4834189e-01 1.00537700e+04 7.81653100e-03 6.93548900e-02
  1000022 -1    0    0    0    0 +0.0000000000e+00 +0.0000000000e+00 +4.4721471353e+01 1.0000100000e+04 1.0000000000e+04 0.0000e+00 1.0000e+00
  1000022 -1    0    0    0    0 -0.0000000000e+00 -0.0000000000e+00 -4.4721471353e+01 1.0000100000e+04 1.0000000000e+04 0.0000e+00 1.0000e+00
      -24  1    1    2    0    0 -1.9137063315e+03 +4.6761379388e+03 +8.5671817648e+03 9.9464322250e+03 7.9829010000e+01 0.0000e+00 1.0000e+00
       24  1    1    2    0    0 +1.4914137478e+03 -4.3425436812e+03 -6.7978690171e+03 8.2036209344e+03 7.9829010000e+01 0.0000e+00 1.0000e+00
       22  1    1    2    0    0 +4.0885063530e+02 -3.2111672958e+02 -1.7353253341e+03 1.8115266520e+03 0.0000000000e+00 0.0000e+00 1.0000e+00
       22  1    1    2    0    0 +1.3441948391e+01 -1.2477527976e+01 -3.3987413637e+01 3.8620188589e+01 0.0000000000e+00 0.0000e+00 1.0000e+00
</event>
<event>
 6      1 +1.4834189e-01 1.00034600e+04 7.81653100e-03 6.93851600e-02
  1000022 -1    0    0    0    0 +0.0000000000e+00 +0.0000000000e+00 +4.4721471353e+01 1.0000100000e+04 1.0000000000e+04 0.0000e+00 -1.0000e+00
  1000022 -1    0    0    0    0 -0.0000000000e+00 -0.0000000000e+00 -4.4721471353e+01 1.0000100000e+04 1.0000000000e+04 0.0000e+00 -1.0000e+00
      -24  1    1    2    0    0 -1.0014109111e+01 -9.3001953672e+03 -3.6653282751e+03 9.9967363767e+03 7.9829010000e+01 0.0000e+00 -1.0000e+00
       24  1    1    2    0    0 -2.6388330142e+00 +9.2630658122e+03 +3.6478526172e+03 9.9557820684e+03 7.9829010000e+01 0.0000e+00 -1.0000e+00
       22  1    1    2    0    0 +7.1907054802e-02 +2.9744520768e+01 +1.0888382968e+01 3.1674888634e+01 0.0000000000e+00 0.0000e+00 1.0000e+00
       22  1    1    2    0    0 +1.2581035071e+01 +7.3850342232e+00 +6.5872749424e+00 1.6006666270e+01 0.0000000000e+00 0.0000e+00 -1.0000e+00
</event>
<event>
 6      1 +1.4834189e-01 1.00035900e+04 7.81653100e-03 6.93850900e-02
  1000022 -1    0    0    0    0 +0.0000000000e+00 +0.0000000000e+00 +4.4721471353e+01 1.0000100000e+04 1.0000000000e+04 0.0000e+00 1.0000e+00
  1000022 -1    0    0    0    0 -0.0000000000e+00 -0.0000000000e+00 -4.4721471353e+01 1.0000100000e+04 1.0000000000e+04 0.0000e+00 1.0000e+00
      -24  1    1    2    0    0 -6.4144675462e+03 -3.5708072262e+03 -6.7845265136e+03 9.9966109674e+03 7.9829010000e+01 0.0000e+00 -1.0000e+00
       24  1    1    2    0    0 +5.9231466389e+03 +3.3526299120e+03 +6.2458469235e+03 9.2380068140e+03 7.9829010000e+01 0.0000e+00 -1.0000e+00
       22  1    1    2    0    0 +3.1321014233e+01 +3.5757473203e+01 +6.5321709029e+01 8.0786932687e+01 0.0000000000e+00 0.0000e+00 -1.0000e+00
       22  1    1    2    0    0 +4.5999989310e+02 +1.8241984098e+02 +4.7335788112e+02 6.8479528595e+02 0.0000000000e+00 0.0000e+00 1.0000e+00
</event>
<event>
 6      1 +1.4834189e-01 1.00017700e+04 7.81653100e-03 6.93861800e-02
  1000022 -1    0    0    0    0 +0.0000000000e+00 +0.0000000000e+00 +4.4721471353e+01 1.0000100000e+04 1.0000000000e+04 0.0000e+00 -1.0000e+00
  1000022 -1    0    0    0    0 -0.0000000000e+00 -0.0000000000e+00 -4.4721471353e+01 1.0000100000e+04 1.0000000000e+04 0.0000e+00 -1.0000e+00
      -24  1    1    2    0    0 +9.2849630229e+03 +2.2030089493e+03 -2.7639934758e+03 9.9352815447e+03 7.9829010000e+01 0.0000e+00 1.0000e+00
       24  1    1    2    0    0 -9.2552727316e+03 -2.3167092104e+03 +2.7149715849e+03 9.9199122112e+03 7.9829010000e+01 0.0000e+00 1.0000e+00
       22  1    1    2    0    0 +1.9047608262e+01 +6.1600980241e+01 +1.6237624120e+01 6.6491748241e+01 0.0000000000e+00 0.0000e+00 -1.0000e+00
       22  1    1    2    0    0 -4.8737899545e+01 +5.2099280794e+01 +3.2784266772e+01 7.8514495853e+01 0.0000000000e+00 0.0000e+00 1.0000e+00
</event>
<event>
 6      1 +1.4834189e-01 1.00449600e+04 7.81653100e-03 6.93601800e-02
  1000022 -1    0    0    0    0 +0.0000000000e+00 +0.0000000000e+00 +4.4721471353e+01 1.0000100000e+04 1.0000000000e+04 0.0000e+00 -1.0000e+00
  1000022 -1    0    0    0    0 -0.0000000000e+00 -0.0000000000e+00 -4.4721471353e+01 1.0000100000e+04 1.0000000000e+04 0.0000e+00 -1.0000e+00
      -24  1    1    2    0    0 -5.2595212045e+03 -1.7845496419e+03 +8.2184178211e+03 9.9194730141e+03 7.9829010000e+01 0.0000e+00 -1.0000e+00
       24  1    1    2    0    0 +5.7468403310e+02 +6.3150625259e+02 -1.6642901295e+03 1.8722436249e+03 7.9829010000e+01 0.0000e+00 -1.0000e+00
       22  1    1    2    0    0 +4.6968402632e+03 +1.1624155665e+03 -6.5864876616e+03 8.1727191389e+03 0.0000000000e+00 0.0000e+00 -1.0000e+00
       22  1    1    2    0    0 -1.2003091733e+01 -9.3721771405e+00 +3.2359970065e+01 3.5764222039e+01 0.0000000000e+00 0.0000e+00 -1.0000e+00
</event>
<event>
 6      1 +1.4834189e-01 1.00039900e+04 7.81653100e-03 6.93848500e-02
  1000022 -1    0    0    0    0 +0.0000000000e+00 +0.0000000000e+00 +4.4721471353e+01 1.0000100000e+04 1.0000000000e+04 0.0000e+00 -1.0000e+00
  1000022 -1    0    0    0    0 -0.0000000000e+00 -0.0000000000e+00 -4.4721471353e+01 1.0000100000e+04 1.0000000000e+04 0.0000e+00 -1.0000e+00
      -24  1    1    2    0    0 -3.8646284965e+03 +6.3126158397e+03 +6.5671981074e+03 9.8953997296e+03 7.9829010000e+01 0.0000e+00 1.0000e+00
       24  1    1    2    0    0 +3.6473109978e+03 -6.0629378376e+03 -6.2689585962e+03 9.4534812260e+03 7.9829010000e+01 0.0000e+00 1.0000e+00
       22  1    1    2    0    0 +4.9196603839e-01 +6.9614115967e+01 +8.3334017692e+01 1.0858602892e+02 0.0000000000e+00 0.0000e+00 1.0000e+00
       22  1    1    2    0    0 +2.1682553273e+02 -3.1929211801e+02 -3.8157352884e+02 5.4273301556e+02 0.0000000000e+00 0.0000e+00 -1.0000e+00
</event>
<event>
 6      1 +1.4834189e-01 1.00740500e+04 7.81653100e-03 6.93427400e-02
  1000022 -1    0    0    0    0 +0.0000000000e+00 +0.0000000000e+00 +4.4721471353e+01 1.0000100000e+04 1.0000000000e+04 0.0000e+00 1.0000e+00
  1000022 -1    0    0    0    0 -0.0000000000e+00 -0.0000000000e+00 -4.4721471353e+01 1.0000100000e+04 1.0000000000e+04 0.0000e+00 1.0000e+00
      -24  1    1    2    0    0 +1.9079748066e+03 +7.9068664654e+03 +3.9163869935e+03 9.0279214063e+03 7.9829010000e+01 0.0000e+00 1.0000e+00
       24  1    1    2    0    0 -1.2227297209e+03 -2.2730149757e+03 -6.9961861884e+02 2.6753511794e+03 7.9829010000e+01 0.0000e+00 1.0000e+00
       22  1    1    2    0    0 -9.1361255725e+02 -6.4567317093e+03 -3.4952263950e+03 7.3986944674e+03 0.0000000000e+00 0.0000e+00 1.0000e+00
       22  1    1    2    0    0 +2.2836747159e+02 +8.2288021957e+02 +2.7845802031e+02 8.9823294691e+02 0.0000000000e+00 0.0000e+00 1.0000e+00
</event>
<event>
 6      1 +1.4834189e-01 1.01552000e+04 7.81653100e-03 6.92943900e-02
  1000022 -1    0    0    0    0 +0.0000000000e+00 +0.0000000000e+00 +4.4721471353e+01 1.0000100000e+04 1.0000000000e+04 0.0000e+00 -1.0000e+00
  1000022 -1    0    0    0    0 -0.0000000000e+00 -0.0000000000e+00 -4.4721471353e+01 1.0000100000e+04 1.0000000000e+04 0.0000e+00 -1.0000e+00
      -24  1    1    2    0    0 +4.5498831796e+03 +6.6289145054e+03 +5.5110464067e+03 9.7479202724e+03 7.9829010000e+01 0.0000e+00 1.0000e+00
       24  1    1    2    0    0 -4.4269184428e+03 -6.1519226951e+03 -5.7881959541e+03 9.5369463047e+03 7.9829010000e+01 0.0000e+00 1.0000e+00
       22  1    1    2    0    0 -9.9490514114e+01 -5.6225034839e+02 +2.3709249732e+02 6.1825291666e+02 0.0000000000e+00 0.0000e+00 1.0000e+00
       22  1    1    2    0    0 -2.3474222667e+01 +8.5258538003e+01 +4.0057050066e+01 9.7080506242e+01 0.0000000000e+00 0.0000e+00 1.0000e+00
</event>
<event>
 6      1 +1.4834189e-01 1.01511600e+04 7.81653100e-03 6.92967800e-02
  1000022 -1    0    0    0    0 +0.0000000000e+00 +0.0000000000e+00 +4.4721471353e+01 1.0000100000e+04 1.0000000000e+04 0.0000e+00 1.0000e+00
  1000022 -1    0    0    0    0 -0.0000000000e+00 -0.0000000000e+00 -4.4721471353e+01 1.0000100000e+04 1.0000000000e+04 0.0000e+00 1.0000e+00
      -24  1    1    2    0    0 +2.6708002423e+03 -5.5600782972e+03 -6.7402693885e+03 9.1370262507e+03 7.9829010000e+01 0.0000e+00 -1.0000e+00
       24  1    1    2    0    0 -1.0315832223e+03 +4.7220451050e+03 +4.6540020197e+03 6.7102892179e+03 7.9829010000e+01 0.0000e+00 -1.0000e+00
       22  1    1    2    0    0 -1.8452718949e+03 +1.2747179241e+03 +2.6095346364e+03 3.4408727339e+03 0.0000000000e+00 0.0000e+00 -1.0000e+00
       22  1    1    2    0    0 +2.0605487493e+02 -4.3668473186e+02 -5.2326726755e+02 7.1201179752e+02 0.0000000000e+00 0.0000e+00 -1.0000e+00
</event>
<event>
 6      1 +1.4834189e-01 1.00017800e+04 7.81653100e-03 6.93861800e-02
  1000022 -1    0    0    0    0 +0.0000000000e+00 +0.0000000000e+00 +4.4721471353e+01 1.0000100000e+04 1.0000000000e+04 0.0000e+00 1.0000e+00
  1000022 -1    0    0    0    0 -0.0000000000e+00 -0.0000000000e+00 -4.4721471353e+01 1.0000100000e+04 1.0000000000e+04 0.0000e+00 1.0000e+00
      -24  1    1    2    0    0 -7.1759435609e+03 +5.4551262547e+03 -4.3254343021e+03 9.9984160254e+03 7.9829010000e+01 0.0000e+00 -1.0000e+00
       24  1    1    2    0    0 +6.6576123360e+03 -5.0009075446e+03 +3.9854003447e+03 9.2316123654e+03 7.9829010000e+01 0.0000e+00 -1.0000e+00
       22  1    1    2    0    0 +4.9680730736e+02 -4.4698042728e+02 +3.3044064685e+02 7.4551996896e+02 0.0000000000e+00 0.0000e+00 -1.0000e+00
       22  1    1    2    0    0 +2.1523917511e+01 -7.2382828619e+00 +9.5933105008e+00 2.4651640314e+01 0.0000000000e+00 0.0000e+00 1.0000e+00
</event>
<event>
 6      1 +1.4834189e-01 6.00839000e+03 7.81653100e-03 7.26081200e-02
  1000022 -1    0    0    0    0 +0.0000000000e+00 +0.0000000000e+00 +4.4721471353e+01 1.0000100000e+04 1.0000000000e+04 0.0000e+00 -1.0000e+00
  1000022 -1    0    0    0    0 -0.0000000000e+00 -0.0000000000e+00 -4.4721471353e+01 1.0000100000e+04 1.0000000000e+04 0.0000e+00 -1.0000e+00
      -24  1    1    2    0    0 -4.7754515886e+03 +3.9813330241e+03 +1.7133079541e+03 6.4496315662e+03 7.9829010000e+01 0.0000e+00 -1.0000e+00
       24  1    1    2    0    0 -5.7772172949e+01 -5.6844226945e+01 -1.2300730383e+02 1.6754807590e+02 7.9829010000e+01 0.0000e+00 1.0000e+00
       22  1    1    2    0    0 +3.3583509295e+03 +3.2138277543e+03 +2.2276342229e+03 5.1545672982e+03 0.0000000000e+00 0.0000e+00 -1.0000e+00
       22  1    1    2    0    0 +1.4748728320e+03 -7.1383165515e+03 -3.8179348732e+03 8.2284530597e+03 0.0000000000e+00 0.0000e+00 -1.0000e+00
</event>
<event>
 6      1 +1.4834189e-01 1.08596300e+04 7.81653100e-03 6.88928900e-02
  1000022 -1    0    0    0    0 +0.0000000000e+00 +0.0000000000e+00 +4.4721471353e+01 1.0000100000e+04 1.0000000000e+04 0.0000e+00 -1.0000e+00
  1000022 -1    0    0    0    0 -0.0000000000e+00 -0.0000000000e+00 -4.4721471353e+01 1.0000100000e+04 1.0000000000e+04 0.0000e+00 -1.0000e+00
      -24  1    1    2    0    0 -1.3575749933e+03 -7.8884190461e+03 -7.8168356749e+01 8.0051638254e+03 7.9829010000e+01 0.0000e+00 -1.0000e+00
       24  1    1    2    0    0 +1.2043670822e+03 +8.3863202687e+03 +2.1328282379e+03 8.7370588118e+03 7.9829010000e+01 0.0000e+00 -1.0000e+00
       22  1    1    2    0    0 +8.0259510035e+02 +4.2349816481e+02 -1.9188065239e+03 2.1225758094e+03 0.0000000000e+00 0.0000e+00 1.0000e+00
       22  1    1    2    0    0 -6.4938718917e+02 -9.2139938746e+02 -1.3585335729e+02 1.1354015534e+03 0.0000000000e+00 0.0000e+00 -1.0000e+00
</event>
<event>
 6      1 +1.4834189e-01 1.00023700e+04 7.81653100e-03 6.93858200e-02
  1000022 -1    0    0    0    0 +0.0000000000e+00 +0.0000000000e+00 +4.4721471353e+01 1.0000100000e+04 1.0000000000e+04 0.0000e+00 1.0000e+00
  1000022 -1    0    0    0    0 -0.0000000000e+00 -0.0000000000e+00 -4.4721471353e+01 1.0000100000e+04 1.0000000000e+04 0.0000e+00 1.0000e+00
      -24  1    1    2    0    0 -3.6456530282e+02 -1.1247378313e+02 +5.8362003567e+02 7.0181424094e+02 7.9829010000e+01 0.0000e+00 0.0000e+00
       24  1    1    2    0    0 +5.7197423149e+03 +1.5455831972e+03 -8.0083775685e+03 9.9621666077e+03 7.9829010000e+01 0.0000e+00 -1.0000e+00
       22  1    1    2    0    0 -5.3762432881e+03 -1.4297311479e+03 +7.4533354404e+03 9.3005554799e+03 0.0000000000e+00 0.0000e+00 -1.0000e+00
       22  1    1    2    0    0 +2.1066276031e+01 -3.3782661306e+00 -2.8577907496e+01 3.5663671498e+01 0.0000000000e+00 0.0000e+00 1.0000e+00
</event>
<event>
 6      1 +1.4834189e-01 1.00184600e+04 7.81653100e-03 6.93761200e-02
  1000022 -1    0    0    0    0 +0.0000000000e+00 +0.0000000000e+00 +4.4721471353e+01 1.0000100000e+04 1.0000000000e+04 0.0000e+00 1.0000e+00
  1000022 -1    0    0    0    0 -0.0000000000e+00 -0.0000000000e+00 -4.4721471353e+01 1.0000100000e+04 1.0000000000e+04 0.0000e+00 1.0000e+00
      -24  1    1    2    0    0 -8.8582370537e+02 +1.3988069838e+03 +1.6488980253e+02 1.6658048904e+03 7.9829010000e+01 0.0000e+00 1.0000e+00
       24  1    1    2    0    0 +3.8917304364e+03 -8.2003920630e+03 +4.1574177458e+02 9.0868701801e+03 7.9829010000e+01 0.0000e+00 -1.0000e+00
       22  1    1    2    0    0 -3.3244770235e+03 +7.6350925208e+03 -6.4817803098e+02 8.3526594592e+03 0.0000000000e+00 0.0000e+00 -1.0000e+00
       22  1    1    2    0    0 +3.1857029244e+02 -8.3350744170e+02 +6.7546453868e+01 8.9486547035e+02 0.0000000000e+00 0.0000e+00 -1.0000e+00
</event>
<event>
 6      1 +1.4834189e-01 1.02883500e+04 7.81653100e-03 6.92160300e-02
  1000022 -1    0    0    0    0 +0.0000000000e+00 +0.0000000000e+00 +4.4721471353e+01 1.0000100000e+04 1.0000000000e+04 0.0000e+00 -1.0000e+00
  1000022 -1    0    0    0    0 -0.0000000000e+00 -0.0000000000e+00 -4.4721471353e+01 1.0000100000e+04 1.0000000000e+04 0.0000e+00 -1.0000e+00
      -24  1    1    2    0    0 -1.4963895450e+03 +7.7279489325e+03 -4.4189341760e+03 9.0273876784e+03 7.9829010000e+01 0.0000e+00 1.0000e+00
       24  1    1    2    0    0 +7.8175551300e+02 -8.6745619698e+03 +4.2958759914e+03 9.7118530803e+03 7.9829010000e+01 0.0000e+00 1.0000e+00
       22  1    1    2    0    0 +7.3354686429e+02 +8.3027819993e+02 +1.9199414232e+02 1.1244174679e+03 0.0000000000e+00 0.0000e+00 -1.0000e+00
       22  1    1    2    0    0 -1.8912832314e+01 +1.1633483740e+02 -6.8935957649e+01 1.3654177338e+02 0.0000000000e+00 0.0000e+00 1.0000e+00
</event>
<event>
 6      1 +1.4834189e-01 1.00130800e+04 7.81653100e-03 6.93793700e-02
  1000022 -1    0    0    0    0 +0.0000000000e+00 +0.0000000000e+00 +4.4721471353e+01 1.0000100000e+04 1.0000000000e+04 0.0000e+00 1.0000e+00
  1000022 -1    0    0    0    0 -0.0000000000e+00 -0.0000000000e+00 -4.4721471353e+01 1.0000100000e+04 1.0000000000e+04 0.0000e+00 1.0000e+00
      -24  1    1    2    0    0 -2.3987764538e+03 +7.3435244938e+03 +6.3288861674e+03 9.9871243738e+03 7.9829010000e+01 0.0000e+00 -1.0000e+00
       24  1    1    2    0    0 +2.3122639528e+03 -7.0215172368e+03 -6.1916481146e+03 9.6431917922e+03 7.9829010000e+01 0.0000e+00 -1.0000e+00
       22  1    1    2    0    0 +3.1356718712e+01 -1.0062872046e+02 -8.6049460196e+01 1.3606576641e+02 0.0000000000e+00 0.0000e+00 -1.0000e+00
       22  1    1    2    0    0 +5.5155782268e+01 -2.2137853651e+02 -5.1188592597e+01 2.3381806764e+02 0.0000000000e+00 0.0000e+00 1.0000e+00
</event>
<event>
 6      1 +1.4834189e-01 1.00066300e+04 7.81653100e-03 6.93832500e-02
  1000022 -1    0    0    0    0 +0.0000000000e+00 +0.0000000000e+00 +4.4721471353e+01 1.0000100000e+04 1.0000000000e+04 0.0000e+00 -1.0000e+00
  1000022 -1    0    0    0    0 -0.0000000000e+00 -0.0000000000e+00 -4.4721471353e+01 1.0000100000e+04 1.0000000000e+04 0.0000e+00 -1.0000e+00
      -24  1    1    2    0    0 -3.6223996271e+03 -9.2099513165e+03 +4.8798770227e+02 9.9090608525e+03 7.9829010000e+01 0.0000e+00 -1.0000e+00
       24  1    1    2    0    0 +3.6865924813e+03 +9.2322855075e+03 -5.1346064322e+02 9.9547011164e+03 7.9829010000e+01 0.0000e+00 -1.0000e+00
       22  1    1    2    0    0 -4.1602934695e+01 -6.9088442867e+01 +2.5263973677e+01 8.4512043396e+01 0.0000000000e+00 0.0000e+00 -1.0000e+00
       22  1    1    2    0    0 -2.2589919500e+01 +4.6754251868e+01 +2.0896727102e-01 5.1925987695e+01 0.0000000000e+00 0.0000e+00 1.0000e+00
</event>
<event>
 6      1 +1.4834189e-01 1.00485500e+04 7.81653100e-03 6.93580200e-02
  1000022 -1    0    0    0    0 +0.0000000000e+00 +0.0000000000e+00 +4.4721471353e+01 1.0000100000e+04 1.0000000000e+04 0.0000e+00 -1.0000e+00
  1000022 -1    0    0    0    0 -0.0000000000e+00 -0.0000000000e+00 -4.4721471353e+01 1.0000100000e+04 1.0000000000e+04 0.0000e+00 -1.0000e+00
      -24  1    1    2    0    0 +2.9764190603e+03 -1.6098437588e+03 +9.3583252635e+03 9.9516476907e+03 7.9829010000e+01 0.0000e+00 -1.0000e+00
       24  1    1    2    0    0 -2.6227733755e+03 +1.0628216235e+03 -8.3926597536e+03 8.8572930624e+03 7.9829010000e+01 0.0000e+00 -1.0000e+00
       22  1    1    2    0    0 -2.7901306837e+02 +5.5480817815e+02 -8.3558320159e+02 1.0410858243e+03 0.0000000000e+00 0.0000e+00 1.0000e+00
       22  1    1    2    0    0 -7.4632616417e+01 -7.7860429093e+00 -1.3008230837e+02 1.5017342258e+02 0.0000000000e+00 0.0000e+00 1.0000e+00
</event>
<event>
 6      1 +1.4834189e-01 8.33178600e+03 7.81653100e-03 7.05073200e-02
  1000022 -1    0    0    0    0 +0.0000000000e+00 +0.0000000000e+00 +4.4721471353e+01 1.0000100000e+04 1.0000000000e+04 0.0000e+00 -1.0000e+00
  1000022 -1    0    0    0    0 -0.0000000000e+00 -0.0000000000e+00 -4.4721471353e+01 1.0000100000e+04 1.0000000000e+04 0.0000e+00 -1.0000e+00
      -24  1    1    2    0    0 +2.1495248717e+03 +3.1254755607e+02 -1.5597322152e+03 2.6753094032e+03 7.9829010000e+01 0.0000e+00 1.0000e+00
       24  1    1    2    0    0 -2.9731578673e+03 +6.6020059461e+02 -2.9839419593e+02 3.0611998132e+03 7.9829010000e+01 0.0000e+00 1.0000e+00
       22  1    1    2    0    0 +5.4770508779e+03 +5.1368570165e+02 -3.8770410654e+03 6.7300376479e+03 0.0000000000e+00 0.0000e+00 1.0000e+00
       22  1    1    2    0    0 -4.6534178823e+03 -1.4864338523e+03 +5.7351674765e+03 7.5336531357e+03 0.0000000000e+00 0.0000e+00 1.0000e+00
</event>
<event>
 6      1 +1.4834189e-01 1.02402600e+04 7.81653100e-03 6.92441900e-02
  1000022 -1    0    0    0    0 +0.0000000000e+00 +0.0000000000e+00 +4.4721471353e+01 1.0000100000e+04 1.0000000000e+04 0.0000e+00 1.0000e+00
  1000022 -1    0    0    0    0 -0.0000000000e+00 -0.0000000000e+00 -4.4721471353e+01 1.0000100000e+04 1.0000000000e+04 0.0000e+00 1.0000e+00
      -24  1    1    2    0    0 -5.6555167940e+03 +5.3989631127e+03 -2.5309006828e+03 8.2186071713e+03 7.9829010000e+01 0.0000e+00 -1.0000e+00
       24  1    1    2    0    0 +6.7009628706e+03 -5.7032748694e+03 +4.2213585342e+03 9.7599430416e+03 7.9829010000e+01 0.0000e+00 -1.0000e+00
       22  1    1    2    0    0 -1.0256657583e+03 +2.7846984012e+02 -1.6790890604e+03 1.9871778412e+03 0.0000000000e+00 0.0000e+00 1.0000e+00
       22  1    1    2    0    0 -1.9780318309e+01 +2.5841916632e+01 -1.1368790958e+01 3.4471945919e+01 0.0000000000e+00 0.0000e+00 -1.0000e+00
</event>
<event>
 6      1 +1.4834189e-01 1.05090900e+04 7.81653100e-03 6.90887300e-02
  1000022 -1    0    0    0    0 +0.0000000000e+00 +0.0000000000e+00 +4.4721471353e+01 1.0000100000e+04 1.0000000000e+04 0.0000e+00 1.0000e+00
  1000022 -1    0    0    0    0 -0.0000000000e+00 -0.0000000000e+00 -4.4721471353e+01 1.0000100000e+04 1.0000000000e+04 0.0000e+00 1.0000e+00
      -24  1    1    2    0    0 +4.9602396417e+03 -4.3941612284e+03 -3.6994824720e+02 6.6374591962e+03 7.9829010000e+01 0.0000e+00 1.0000e+00
       24  1    1    2    0    0 -7.2500816741e+03 +5.7517197253e+03 +2.1044843980e+03 9.4911111748e+03 7.9829010000e+01 0.0000e+00 1.0000e+00
       22  1    1    2    0    0 +1.3912698433e+03 -1.3891640918e+03 -5.5314868135e+01 1.9668422370e+03 0.0000000000e+00 0.0000e+00 1.0000e+00
       22  1    1    2    0    0 +8.9857218924e+02 +3.1605594895e+01 -1.6792212826e+03 1.9047873921e+03 0.0000000000e+00 0.0000e+00 1.0000e+00
</event>
<event>
 6      1 +1.4834189e-01 1.00149000e+04 7.81653100e-03 6.93782600e-02
  1000022 -1    0    0    0    0 +0.0000000000e+00 +0.0000000000e+00 +4.4721471353e+01 1.0000100000e+04 1.0000000000e+04 0.0000e+00 1.0000e+00
  1000022 -1    0    0    0    0 -0.0000000000e+00 -0.0000000000e+00 -4.4721471353e+01 1.0000100000e+04 1.0000000000e+04 0.0000e+00 1.0000e+00
      -24  1    1    2    0    0 -7.7076390751e+02 -7.6597603610e+03 +3.5444445422e+03 8.4755805449e+03 7.9829010000e+01 0.0000e+00 1.0000e+00
       24  1    1    2    0    0 +9.0460844530e+02 +8.9498737867e+03 -4.3337353125e+03 9.9852987770e+03 7.9829010000e+01 0.0000e+00 1.0000e+00
       22  1    1    2    0    0 -1.8217229066e+02 -9.6283977671e+02 +5.0128604031e+02 1.1006974486e+03 0.0000000000e+00 0.0000e+00 -1.0000e+00
       22  1    1    2    0    0 +4.8327752874e+01 -3.2727364891e+02 +2.8800473001e+02 4.3862322952e+02 0.0000000000e+00 0.0000e+00 1.0000e+00
</event>
<event>
 6      1 +1.4834189e-01 1.00001500e+04 7.81653100e-03 6.93871700e-02
  1000022 -1    0    0    0    0 +0.0000000000e+00 +0.0000000000e+00 +4.4721471353e+01 1.0000100000e+04 1.0000000000e+04 0.0000e+00 -1.0000e+00
  1000022 -1    0    0    0    0 -0.0000000000e+00 -0.0000000000e+00 -4.4721471353e+01 1.0000100000e+04 1.0000000000e+04 0.0000e+00 -1.0000e+00
      -24  1    1    2    0    0 +3.4951333183e+03 +6.7558191943e+03 -6.4410600994e+03 9.9674810145e+03 7.9829010000e+01 0.0000e+00 1.0000e+00
       24  1    1    2    0    0 -3.3364351563e+03 -6.4350043198e+03 +6.1305419444e+03 9.4937346366e+03 7.9829010000e+01 0.0000e+00 1.0000e+00
       22  1    1    2    0    0 +1.0849870611e+01 +2.2323971474e+01 -2.1089808994e+01 3.2570837233e+01 0.0000000000e+00 0.0000e+00 1.0000e+00
       22  1    1    2    0    0 -1.6954803263e+02 -3.4313884601e+02 +3.3160796407e+02 5.0641351171e+02 0.0000000000e+00 0.0000e+00 -1.0000e+00
</event>
<event>
 6      1 +1.4834189e-01 1.00004000e+04 7.81653100e-03 6.93870100e-02
  1000022 -1    0    0    0    0 +0.0000000000e+00 +0.0000000000e+00 +4.4721471353e+01 1.0000100000e+04 1.0000000000e+04 0.0000e+00 1.0000e+00
  1000022 -1    0    0    0    0 -0.0000000000e+00 -0.0000000000e+00 -4.4721471353e+01 1.0000100000e+04 1.0000000000e+04 0.0000e+00 1.0000e+00
      -24  1    1    2    0    0 +3.6753395736e+03 +7.4418889232e+03 -3.3261899317e+03 8.9420212401e+03 7.9829010000e+01 0.0000e+00 -1.0000e+00
       24  1    1    2    0    0 -3.7738159315e+03 -7.7238417361e+03 +3.4513868074e+03 9.2637930360e+03 7.9829010000e+01 0.0000e+00 -1.0000e+00
       22  1    1    2    0    0 -3.0211087254e+02 -6.1106461757e+02 +2.7755758596e+02 7.3600893995e+02 0.0000000000e+00 0.0000e+00 1.0000e+00
       22  1    1    2    0    0 +4.0058723051e+02 +8.9301743045e+02 -4.0275446162e+02 1.0583767839e+03 0.0000000000e+00 0.0000e+00 -1.0000e+00
</event>
<event>
 6      1 +1.4834189e-01 1.00302800e+04 7.81653100e-03 6.93690000e-02
  1000022 -1    0    0    0    0 +0.0000000000e+00 +0.0000000000e+00 +4.4721471353e+01 1.0000100000e+04 1.0000000000e+04 0.0000e+00 1.0000e+00
  1000022 -1    0    0    0    0 -0.0000000000e+00 -0.0000000000e+00 -4.4721471353e+01 1.0000100000e+04 1.0000000000e+04 0.0000e+00 1.0000e+00
      -24  1    1    2    0    0 +3.5822680874e+03 +9.0146327532e+03 +2.2411619708e+03 9.9561753688e+03 7.9829010000e+01 0.0000e+00 1.0000e+00
       24  1    1    2    0    0 -3.5097928551e+03 -8.7631599955e+03 -1.9730057398e+03 9.6442077597e+03 7.9829010000e+01 0.0000e+00 1.0000e+00
       22  1    1    2    0    0 -7.7226818471e+01 -2.6409416663e+02 -2.7081559299e+02 3.8607097242e+02 0.0000000000e+00 0.0000e+00 1.0000e+00
       22  1    1    2    0    0 +4.7515861229e+00 +1.2621408973e+01 +2.6593619117e+00 1.3745899058e+01 0.0000000000e+00 0.0000e+00 -1.0000e+00
</event>
<event>
 6      1 +1.4834189e-01 1.00084300e+04 7.81653100e-03 6.93821700e-02
  1000022 -1    0    0    0    0 +0.0000000000e+00 +0.0000000000e+00 +4.4721471353e+01 1.0000100000e+04 1.0000000000e+04 0.0000e+00 1.0000e+00
  1000022 -1    0    0    0    0 -0.0000000000e+00 -0.0000000000e+00 -4.4721471353e+01 1.0000100000e+04 1.0000000000e+04 0.0000e+00 1.0000e+00
      -24  1    1    2    0    0 +4.4335221397e+03 +5.9382835865e+03 -1.8802333985e+03 7.6459780814e+03 7.9829010000e+01 0.0000e+00 -1.0000e+00
       24  1    1    2    0    0 -5.7160107607e+03 -7.6629974984e+03 +2.7535687694e+03 9.9490111728e+03 7.9829010000e+01 0.0000e+00 -1.0000e+00
       22  1    1    2    0    0 -2.2289350911e+01 -3.0299640063e+01 +2.0337450899e+01 4.2760908094e+01 0.0000000000e+00 0.0000e+00 -1.0000e+00
       22  1    1    2    0    0 +1.3047779719e+03 +1.7550135520e+03 -8.9367282176e+02 2.3624498378e+03 0.0000000000e+00 0.0000e+00 -1.0000e+00
</event>
<event>
 6      1 +1.4834189e-01 9.74122100e+03 7.81653100e-03 6.95459400e-02
  1000022 -1    0    0    0    0 +0.0000000000e+00 +0.0000000000e+00 +4.4721471353e+01 1.0000100000e+04 1.0000000000e+04 0.0000e+00 1.0000e+00
  1000022 -1    0    0    0    0 -0.0000000000e+00 -0.0000000000e+00 -4.4721471353e+01 1.0000100000e+04 1.0000000000e+04 0.0000e+00 1.0000e+00
      -24  1    1    2    0    0 +2.2087931792e+02 -4.2905454710e+02 -1.8735119007e+01 4.8948866483e+02 7.9829010000e+01 0.0000e+00 -1.0000e+00
       24  1    1    2    0    0 +6.0913826816e+03 +2.9950997892e+03 -6.9591952970e+03 9.7217456033e+03 7.9829010000e+01 0.0000e+00 -1.0000e+00
       22  1    1    2    0    0 +6.7916797108e+00 -1.2000259257e+01 -1.7449701905e+01 2.2240171585e+01 0.0000000000e+00 0.0000e+00 1.0000e+00
       22  1    1    2    0    0 -6.3190536793e+03 -2.5540449829e+03 +6.9953801179e+03 9.7667255603e+03 0.0000000000e+00 0.0000e+00 -1.0000e+00
</event>
<event>
 6      1 +1.4834189e-01 1.00085300e+04 7.81653100e-03 6.93821100e-02
  1000022 -1    0    0    0    0 +0.0000000000e+00 +0.0000000000e+00 +4.4721471353e+01 1.0000100000e+04 1.0000000000e+04 0.0000e+00 -1.0000e+00
  1000022 -1    0    0    0    0 -0.0000000000e+00 -0.0000000000e+00 -4.4721471353e+01 1.0000100000e+04 1.0000000000e+04 0.0000e+00 -1.0000e+00
      -24  1    1    2    0    0 -6.1794493362e+03 -6.9836828976e+03 -3.5874306779e+03 9.9916691525e+03 7.9829010000e+01 0.0000e+00 1.0000e+00
       24  1    1    2    0    0 +5.7225394475e+03 +6.4809275782e+03 +3.3077398300e+03 9.2572887746e+03 7.9829010000e+01 0.0000e+00 1.0000e+00
       22  1    1    2    0    0 +4.3919814913e+02 +4.9998283390e+02 +2.9473668643e+02 7.2783759364e+02 0.0000000000e+00 0.0000e+00 -1.0000e+00
       22  1    1    2    0    0 +1.7711739551e+01 +2.7724854923e+00 -1.5045838553e+01 2.3404479304e+01 0.0000000000e+00 0.0000e+00 1.0000e+00
</event>
<event>
 6      1 +1.4834189e-01 1.00020500e+04 7.81653100e-03 6.93860200e-02
  1000022 -1    0    0    0    0 +0.0000000000e+00 +0.0000000000e+00 +4.4721471353e+01 1.0000100000e+04 1.0000000000e+04 0.0000e+00 -1.0000e+00
  1000022 -1    0    0    0    0 -0.0000000000e+00 -0.0000000000e+00 -4.4721471353e+01 1.0000100000e+04 1.0000000000e+04 0.0000e+00 -1.0000e+00
      -24  1    1    2    0    0 +4.1779731589e+03 +5.2556230523e+03 +7.3248894717e+03 9.9366700573e+03 7.9829010000e+01 0.0000e+00 1.0000e+00
       24  1    1    2    0    0 -4.1976588719e+03 -5.2973727203e+03 -7.3670953303e+03 9.9981480294e+03 7.9829010000e+01 0.0000e+00 1.0000e+00
       22  1    1    2    0    0 +2.0934895331e+01 +2.7195767151e+01 +2.3264529372e+01 4.1462246929e+01 0.0000000000e+00 0.0000e+00 1.0000e+00
       22  1    1    2    0    0 -1.2491823346e+00 +1.4553900851e+01 +1.8941329146e+01 2.3919666309e+01 0.0000000000e+00 0.0000e+00 -1.0000e+00
</event>
<event>
 6      1 +1.4834189e-01 1.00011200e+04 7.81653100e-03 6.93865800e-02
  1000022 -1    0    0    0    0 +0.0000000000e+00 +0.0000000000e+00 +4.4721471353e+01 1.0000100000e+04 1.0000000000e+04 0.0000e+00 -1.0000e+00
  1000022 -1    0    0    0    0 -0.0000000000e+00 -0.0000000000e+00 -4.4721471353e+01 1.0000100000e+04 1.0000000000e+04 0.0000e+00 -1.0000e+00
      -24  1    1    2    0    0 +8.0621839581e+03 +1.6979791010e+03 -5.5908234410e+03 9.9571894940e+03 7.9829010000e+01 0.0000e+00 -1.0000e+00
       24  1    1    2    0    0 -2.1350254382e+03 -3.8149545871e+02 +1.4868734704e+03 2.6307865354e+03 7.9829010000e+01 0.0000e+00 0.0000e+00
       22  1    1    2    0    0 -5.9620105493e+03 -1.3244212930e+03 +4.1257924087e+03 7.3703340868e+03 0.0000000000e+00 0.0000e+00 -1.0000e+00
       22  1    1    2    0    0 +3.4852029481e+01 +7.9376506798e+00 -2.1842438135e+01 4.1889883755e+01 0.0000000000e+00 0.0000e+00 1.0000e+00
</event>
<event>
 6      1 +1.4834189e-01 1.00004600e+04 7.81653100e-03 6.93869800e-02
  1000022 -1    0    0    0    0 +0.0000000000e+00 +0.0000000000e+00 +4.4721471353e+01 1.0000100000e+04 1.0000000000e+04 0.0000e+00 1.0000e+00
  1000022 -1    0    0    0    0 -0.0000000000e+00 -0.0000000000e+00 -4.4721471353e+01 1.0000100000e+04 1.0000000000e+04 0.0000e+00 1.0000e+00
      -24  1    1    2    0    0 -7.9103321907e+03 -1.6001354348e+03 +2.6260674586e+02 8.0752166380e+03 7.9829010000e+01 0.0000e+00 1.0000e+00
       24  1    1    2    0    0 +9.4835997687e+03 +2.2284854551e+03 -4.7932985790e+02 9.7540218259e+03 7.9829010000e+01 0.0000e+00 1.0000e+00
       22  1    1    2    0    0 -1.8063866584e+03 -6.4907220528e+02 +1.3954414235e+02 1.9245259300e+03 0.0000000000e+00 0.0000e+00 1.0000e+00
       22  1    1    2    0    0 +2.3311908045e+02 +2.0722184986e+01 +7.7178969681e+01 2.4643560616e+02 0.0000000000e+00 0.0000e+00 1.0000e+00
</event>
<event>
 6      1 +1.4834189e-01 1.02089900e+04 7.81653100e-03 6.92625900e-02
  1000022 -1    0    0    0    0 +0.0000000000e+00 +0.0000000000e+00 +4.4721471353e+01 1.0000100000e+04 1.0000000000e+04 0.0000e+00 1.0000e+00
  1000022 -1    0    0    0    0 -0.0000000000e+00 -0.0000000000e+00 -4.4721471353e+01 1.0000100000e+04 1.0000000000e+04 0.0000e+00 1.0000e+00
      -24  1    1    2    0    0 -5.7701522440e+03 +5.5865088081e+02 -7.8901649526e+03 9.7912115377e+03 7.9829010000e+01 0.0000e+00 1.0000e+00
       24  1    1    2    0    0 +4.6397568103e+03 +6.9771001890e+02 +5.0330269429e+03 6.8812698979e+03 7.9829010000e+01 0.0000e+00 1.0000e+00
       22  1    1    2    0    0 +2.7822134310e+01 +7.4667621596e+00 +4.5936796954e+01 5.4221886809e+01 0.0000000000e+00 0.0000e+00 1.0000e+00
       22  1    1    2    0    0 +1.1025732994e+03 -1.2638276619e+03 +2.8112012128e+03 3.2734966776e+03 0.0000000000e+00 0.0000e+00 1.0000e+00
</event>
<event>
 6      1 +1.4834189e-01 1.02928600e+04 7.81653100e-03 6.92134000e-02
  1000022 -1    0    0    0    0 +0.0000000000e+00 +0.0000000000e+00 +4.4721471353e+01 1.0000100000e+04 1.0000000000e+04 0.0000e+00 -1.0000e+00
  1000022 -1    0    0    0    0 -0.0000000000e+00 -0.0000000000e+00 -4.4721471353e+01 1.0000100000e+04 1.0000000000e+04 0.0000e+00 -1.0000e+00
      -24  1    1    2    0    0 -2.7631362625e+03 -5.1968897095e+03 +7.7190372429e+03 9.7073422360e+03 7.9829010000e+01 0.0000e+00 1.0000e+00
       24  1    1    2    0    0 +1.9646356864e+03 +3.1068892200e+03 -6.1829301038e+03 7.1935770897e+03 7.9829010000e+01 0.0000e+00 1.0000e+00
       22  1    1    2    0    0 +5.9580872215e+02 +8.7384943492e+02 -1.5377495007e+03 1.8663532343e+03 0.0000000000e+00 0.0000e+00 1.0000e+00
       22  1    1    2    0    0 +2.0269185398e+02 +1.2161510545e+03 +1.6423616181e+00 1.2329274400e+03 0.0000000000e+00 0.0000e+00 1.0000e+00
</event>
<event>
 6      1 +1.4834189e-01 1.00057100e+04 7.81653100e-03 6.93838100e-02
  1000022 -1    0    0    0    0 +0.0000000000e+00 +0.0000000000e+00 +4.4721471353e+01 1.0000100000e+04 1.0000000000e+04 0.0000e+00 -1.0000e+00
  1000022 -1    0    0    0    0 -0.0000000000e+00 -0.0000000000e+00 -4.4721471353e+01 1.0000100000e+04 1.0000000000e+04 0.0000e+00 -1.0000e+00
      -24  1    1    2    0    0 -7.7509888097e+00 -2.7518006240e+02 +3.7621529753e-01 2.8663034896e+02 7.9829010000e+01 0.0000e+00 0.0000e+00
       24  1    1    2    0    0 -8.1913018062e+01 +9.8266786176e+03 +6.0467822677e+02 9.8459296578e+03 7.9829010000e+01 0.0000e+00 1.0000e+00
       22  1    1    2    0    0 +7.7438029955e+00 +1.4722272514e+02 +1.8323241369e+01 1.4856055485e+02 0.0000000000e+00 0.0000e+00 -1.0000e+00
       22  1    1    2    0    0 +8.1920203876e+01 -9.6987212804e+03 -6.2337768344e+02 9.7190794384e+03 0.0000000000e+00 0.0000e+00 1.0000e+00
</event>
<event>
 6      1 +1.4834189e-01 1.00192600e+04 7.81653100e-03 6.93756400e-02
  1000022 -1    0    0    0    0 +0.0000000000e+00 +0.0000000000e+00 +4.4721471353e+01 1.0000100000e+04 1.0000000000e+04 0.0000e+00 -1.0000e+00
  1000022 -1    0    0    0    0 -0.0000000000e+00 -0.0000000000e+00 -4.4721471353e+01 1.0000100000e+04 1.0000000000e+04 0.0000e+00 -1.0000e+00
      -24  1    1    2    0    0 -6.1398204168e+03 -7.6520379087e+03 +4.5797586202e+02 9.8217714017e+03 7.9829010000e+01 0.0000e+00 1.0000e+00
       24  1    1    2    0    0 +6.2265355011e+03 +7.7879984612e+03 -4.3599924661e+02 9.9809384524e+03 7.9829010000e+01 0.0000e+00 1.0000e+00
       22  1    1    2    0    0 -7.3983124852e+01 -1.6563651900e+01 -1.4460089157e+01 7.7181289867e+01 0.0000000000e+00 0.0000e+00 -1.0000e+00
       22  1    1    2    0    0 -1.2731959444e+01 -1.1939690058e+02 -7.5165262488e+00 1.2030885597e+02 0.0000000000e+00 0.0000e+00 1.0000e+00
</event>
<event>
 6      1 +1.4834189e-01 1.01605700e+04 7.81653100e-03 6.92912000e-02
  1000022 -1    0    0    0    0 +0.0000000000e+00 +0.0000000000e+00 +4.4721471353e+01 1.0000100000e+04 1.0000000000e+04 0.0000e+00 1.0000e+00
  1000022 -1    0    0    0    0 -0.0000000000e+00 -0.0000000000e+00 -4.4721471353e+01 1.0000100000e+04 1.0000000000e+04 0.0000e+00 1.0000e+00
      -24  1    1    2    0    0 -2.0156358428e+02 -3.9811383786e+02 -2.6570571359e+02 5.2544714623e+02 7.9829010000e+01 0.0000e+00 1.0000e+00
       24  1    1    2    0    0 -2.3464703538e+02 +8.5786526145e+03 +4.8128623749e+03 9.8396319454e+03 7.9829010000e+01 0.0000e+00 -1.0000e+00
       22  1    1    2    0    0 +8.8339161041e+02 -4.0596546276e+03 -1.2500117999e+03 4.3386294993e+03 0.0000000000e+00 0.0000e+00 -1.0000e+00
       22  1    1    2    0    0 -4.4718099074e+02 -4.1208841490e+03 -3.2971448614e+03 5.2964914090e+03 0.0000000000e+00 0.0000e+00 -1.0000e+00
</event>
<event>
 6      1 +1.4834189e-01 1.00710300e+04 7.81653100e-03 6.93445400e-02
  1000022 -1    0    0    0    0 +0.0000000000e+00 +0.0000000000e+00 +4.4721471353e+01 1.0000100000e+04 1.0000000000e+04 0.0000e+00 -1.0000e+00
  1000022 -1    0    0    0    0 -0.0000000000e+00 -0.0000000000e+00 -4.4721471353e+01 1.0000100000e+04 1.0000000000e+04 0.0000e+00 -1.0000e+00
      -24  1    1    2    0    0 -6.1488072900e+00 +3.6589695742e+02 +4.8601025715e+02 6.1359353987e+02 7.9829010000e+01 0.0000e+00 1.0000e+00
       24  1    1    2    0    0 -2.3070511928e+03 -2.0864140102e+02 -9.5955602148e+03 9.8715330596e+03 7.9829010000e+01 0.0000e+00 -1.0000e+00
       22  1    1    2    0    0 -1.2866777668e+01 -3.2345289387e+00 -5.6085239321e+01 5.7633065290e+01 0.0000000000e+00 0.0000e+00 1.0000e+00
       22  1    1    2    0    0 +2.3260667777e+03 -1.5402102746e+02 +9.1656351969e+03 9.4574403353e+03 0.0000000000e+00 0.0000e+00 -1.0000e+00
</event>
<event>
 6      1 +1.4834189e-01 5.97015200e+03 7.81653100e-03 7.26504100e-02
  1000022 -1    0    0    0    0 +0.0000000000e+00 +0.0000000000e+00 +4.4721471353e+01 1.0000100000e+04 1.0000000000e+04 0.0000e+00 -1.0000e+00
  1000022 -1    0    0    0    0 -0.0000000000e+00 -0.0000000000e+00 -4.4721471353e+01 1.0000100000e+04 1.0000000000e+04 0.0000e+00 -1.0000e+00
      -24  1    1    2    0    0 -5.2469551484e+03 -2.5545424734e+03 -2.7145177686e+03 6.4367076184e+03 7.9829010000e+01 0.0000e+00 1.0000e+00
       24  1    1    2    0    0 +5.1516532638e+03 -1.8312282905e+03 +4.2891459472e+03 6.9495376846e+03 7.9829010000e+01 0.0000e+00 1.0000e+00
       22  1    1    2    0    0 +9.3133292459e+02 -3.6177528317e+02 +7.6234564867e+02 1.2567550517e+03 0.0000000000e+00 0.0000e+00 1.0000e+00
       22  1    1    2    0    0 -8.3603103997e+02 +4.7475460471e+03 -2.3369738273e+03 5.3571996452e+03 0.0000000000e+00 0.0000e+00 1.0000e+00
</event>
<event>
 6      1 +1.4834189e-01 1.00055200e+04 7.81653100e-03 6.93839200e-02
  1000022 -1    0    0    0    0 +0.0000000000e+00 +0.0000000000e+00 +4.4721471353e+01 1.0000100000e+04 1.0000000000e+04 0.0000e+00 1.0000e+00
  1000022 -1    0    0    0    0 -0.0000000000e+00 -0.0000000000e+00 -4.4721471353e+01 1.0000100000e+04 1.0000000000e+04 0.0000e+00 1.0000e+00
      -24  1    1    2    0    0 +3.9107280022e+02 -8.5584041405e+02 +3.6485788664e+02 1.0123708301e+03 7.9829010000e+01 0.0000e+00 -1.0000e+00
       24  1    1    2    0    0 -3.7405392697e+03 +7.0534479896e+03 -5.9068482414e+03 9.9317667808e+03 7.9829010000e+01 0.0000e+00 -1.0000e+00
       22  1    1    2    0    0 +3.3938394411e+03 -6.2362647060e+03 +5.5197421724e+03 8.9931472403e+03 0.0000000000e+00 0.0000e+00 -1.0000e+00
       22  1    1    2    0    0 -4.4372971606e+01 +3.8657130397e+01 +2.2248182280e+01 6.2915148847e+01 0.0000000000e+00 0.0000e+00 1.0000e+00
</event>
<event>
 6      1 +1.4834189e-01 1.03852700e+04 7.81653100e-03 6.91597500e-02
  1000022 -1    0    0    0    0 +0.0000000000e+00 +0.0000000000e+00 +4.4721471353e+01 1.0000100000e+04 1.0000000000e+04 0.0000e+00 -1.0000e+00
  1000022 -1    0    0    0    0 -0.0000000000e+00 -0.0000000000e+00 -4.4721471353e+01 1.0000100000e+04 1.0000000000e+04 0.0000e+00 -1.0000e+00
      -24  1    1    2    0    0 -8.7945386765e+02 -3.6614464789e+03 -1.4200295582e+03 4.0252311785e+03 7.9829010000e+01 0.0000e+00 -1.0000e+00
       24  1    1    2    0    0 +6.0770437116e+03 +6.3214541866e+03 +3.8600357726e+03 9.5811007793e+03 7.9829010000e+01 0.0000e+00 -1.0000e+00
       22  1    1    2    0    0 +2.0374189333e+01 +2.2352956186e+01 +1.5161226585e+01 3.3832307530e+01 0.0000000000e+00 0.0000e+00 -1.0000e+00
       22  1    1    2    0    0 -5.2179640333e+03 -2.6823606638e+03 -2.4551674409e+03 6.3600357347e+03 0.0000000000e+00 0.0000e+00 -1.0000e+00
</event>
<event>
 6      1 +1.4834189e-01 1.00053600e+04 7.81653100e-03 6.93840200e-02
  1000022 -1    0    0    0    0 +0.0000000000e+00 +0.0000000000e+00 +4.4721471353e+01 1.0000100000e+04 1.0000000000e+04 0.0000e+00 -1.0000e+00
  1000022 -1    0    0    0    0 -0.0000000000e+00 -0.0000000000e+00 -4.4721471353e+01 1.0000100000e+04 1.0000000000e+04 0.0000e+00 -1.0000e+00
      -24  1    1    2    0    0 +6.4886754920e+03 +5.1018458782e+03 +5.5829042724e+03 9.9652864379e+03 7.9829010000e+01 0.0000e+00 -1.0000e+00
       24  1    1    2    0    0 -5.5479403967e+03 -4.3500900327e+03 -4.7426054011e+03 8.4971527348e+03 7.9829010000e+01 0.0000e+00 -1.0000e+00
       22  1    1    2    0    0 -9.7253776722e+02 -7.7538101640e+02 -8.3428206605e+02 1.4976888846e+03 0.0000000000e+00 0.0000e+00 -1.0000e+00
       22  1    1    2    0    0 +3.1802671937e+01 +2.3625170894e+01 -6.0168052126e+00 4.0071942642e+01 0.0000000000e+00 0.0000e+00 1.0000e+00
</event>
<event>
 6      1 +1.4834189e-01 1.00842800e+04 7.81653100e-03 6.93366100e-02
  1000022 -1    0    0    0    0 +0.0000000000e+00 +0.0000000000e+00 +4.4721471353e+01 1.0000100000e+04 1.0000000000e+04 0.0000e+00 -1.0000e+00
  1000022 -1    0    0    0    0 -0.0000000000e+00 -0.0000000000e+00 -4.4721471353e+01 1.0000100000e+04 1.0000000000e+04 0.0000e+00 -1.0000e+00
      -24  1    1    2    0    0 -3.3711450458e+02 +2.2342133566e+02 -1.5460792562e+01 4.1252271376e+02 7.9829010000e+01 0.0000e+00 1.0000e+00
       24  1    1    2    0    0 +8.0949408967e+03 +7.8403437234e+02 -5.6504436219e+03 9.9033662870e+03 7.9829010000e+01 0.0000e+00 -1.0000e+00
       22  1    1    2    0    0 +1.0083213573e+01 +1.9911131484e-01 -7.4695004837e+00 1.2550070867e+01 0.0000000000e+00 0.0000e+00 -1.0000e+00
       22  1    1    2    0    0 -7.7679096057e+03 -1.0076548193e+03 +5.6733739150e+03 9.6717609284e+03 0.0000000000e+00 0.0000e+00 -1.0000e+00
</event>
<event>
 6      1 +1.4834189e-01 1.00928800e+04 7.81653100e-03 6.93314700e-02
  1000022 -1    0    0    0    0 +0.0000000000e+00 +0.0000000000e+00 +4.4721471353e+01 1.0000100000e+04 1.0000000000e+04 0.0000e+00 -1.0000e+00
  1000022 -1    0    0    0    0 -0.0000000000e+00 -0.0000000000e+00 -4.4721471353e+01 1.0000100000e+04 1.0000000000e+04 0.0000e+00 -1.0000e+00
      -24  1    1    2    0    0 +2.1385903187e+03 +5.3847837262e+03 -3.1690146090e+03 6.6044296190e+03 7.9829010000e+01 0.0000e+00 1.0000e+00
       24  1    1    2    0    0 -3.3656645608e+03 -7.6423654626e+03 +4.6394338512e+03 9.5532280895e+03 7.9829010000e+01 0.0000e+00 1.0000e+00
       22  1    1    2    0    0 +2.3347221858e+02 -4.7788933088e+02 +9.1318176097e+01 5.3965405466e+02 0.0000000000e+00 0.0000e+00 -1.0000e+00
       22  1    1    2    0    0 +9.9360202358e+02 +2.7354710673e+03 -1.5617374183e+03 3.3028882368e+03 0.0000000000e+00 0.0000e+00 1.0000e+00
</event>
<event>
 6      1 +1.4834189e-01 1.00620200e+04 7.81653100e-03 6.93499400e-02
  1000022 -1    0    0    0    0 +0.0000000000e+00 +0.0000000000e+00 +4.4721471353e+01 1.0000100000e+04 1.0000000000e+04 0.0000e+00 1.0000e+00
  1000022 -1    0    0    0    0 -0.0000000000e+00 -0.0000000000e+00 -4.4721471353e+01 1.0000100000e+04 1.0000000000e+04 0.0000e+00 1.0000e+00
      -24  1    1    2    0    0 +2.2780148235e+03 -2.3024705095e+03 +1.4343905316e+03 3.5432429850e+03 7.9829010000e+01 0.0000e+00 -1.0000e+00
       24  1    1    2    0    0 -7.2497880480e+03 +4.8378024269e+03 -4.7746464331e+03 9.9381779162e+03 7.9829010000e+01 0.0000e+00 -1.0000e+00
       22  1    1    2    0    0 +4.9792225644e+03 -2.5192981988e+03 +3.3300150264e+03 6.4983475466e+03 0.0000000000e+00 0.0000e+00 -1.0000e+00
       22  1    1    2    0    0 -7.4493399468e+00 -1.6033718658e+01 +1.0240875077e+01 2.0431552119e+01 0.0000000000e+00 0.0000e+00 -1.0000e+00
</event>
<event>
 6      1 +1.4834189e-01 1.00217000e+04 7.81653100e-03 6.93741700e-02
  1000022 -1    0    0    0    0 +0.0000000000e+00 +0.0000000000e+00 +4.4721471353e+01 1.0000100000e+04 1.0000000000e+04 0.0000e+00 -1.0000e+00
  1000022 -1    0    0    0    0 -0.0000000000e+00 -0.0000000000e+00 -4.4721471353e+01 1.0000100000e+04 1.0000000000e+04 0.0000e+00 -1.0000e+00
      -24  1    1    2    0    0 +5.3832624056e+03 +1.7244787036e+03 +8.0737249680e+03 9.8562035519e+03 7.9829010000e+01 0.0000e+00 -1.0000e+00
       24  1    1    2    0    0 -5.0819201554e+03 -1.3996377446e+03 -7.6682784403e+03 9.3055771015e+03 7.9829010000e+01 0.0000e+00 -1.0000e+00
       22  1    1    2    0    0 -3.6660126045e+02 -3.5030978534e+02 -5.0568897900e+02 7.1612483084e+02 0.0000000000e+00 0.0000e+00 -1.0000e+00
       22  1    1    2    0    0 +6.5259010274e+01 +2.5468826296e+01 +1.0024245138e+02 1.2229451580e+02 0.0000000000e+00 0.0000e+00 -1.0000e+00
</event>
<event>
 6      1 +1.4834189e-01 1.00008900e+04 7.81653100e-03 6.93867200e-02
  1000022 -1    0    0    0    0 +0.0000000000e+00 +0.0000000000e+00 +4.4721471353e+01 1.0000100000e+04 1.0000000000e+04 0.0000e+00 1.0000e+00
  1000022 -1    0    0    0    0 -0.0000000000e+00 -0.0000000000e+00 -4.4721471353e+01 1.0000100000e+04 1.0000000000e+04 0.0000e+00 1.0000e+00
      -24  1    1    2    0    0 +8.5364241932e+03 +4.5232311594e+03 -5.4896150232e+02 9.6766672739e+03 7.9829010000e+01 0.0000e+00 1.0000e+00
       24  1    1    2    0    0 -8.6824823060e+03 -4.6204057577e+03 +5.8510515768e+02 9.8530385708e+03 7.9829010000e+01 0.0000e+00 1.0000e+00
       22  1    1    2    0    0 -1.2985574067e+02 -6.6399380957e+01 +1.1135669560e+01 1.4627164562e+02 0.0000000000e+00 0.0000e+00 1.0000e+00
       22  1    1    2    0    0 +2.7591385349e+02 +1.6357397925e+02 -4.7279324921e+01 3.2422250971e+02 0.0000000000e+00 0.0000e+00 1.0000e+00
</event>
<event>
 6      1 +1.4834189e-01 1.00132200e+04 7.81653100e-03 6.93792800e-02
  1000022 -1    0    0    0    0 +0.0000000000e+00 +0.0000000000e+00 +4.4721471353e+01 1.0000100000e+04 1.0000000000e+04 0.0000e+00 1.0000e+00
  1000022 -1    0    0    0    0 -0.0000000000e+00 -0.0000000000e+00 -4.4721471353e+01 1.0000100000e+04 1.0000000000e+04 0.0000e+00 1.0000e+00
      -24  1    1    2    0    0 -5.8760679637e+03 +4.7054045281e+03 +1.7438764471e+01 7.5283253960e+03 7.9829010000e+01 0.0000e+00 1.0000e+00
       24  1    1    2    0    0 +7.5531465673e+03 -6.5322077164e+03 +1.1674578489e+02 9.9869796719e+03 7.9829010000e+01 0.0000e+00 1.0000e+00
       22  1    1    2    0    0 -1.1604623769e+01 +5.7746262020e+00 +2.9930397683e+00 1.3303078127e+01 0.0000000000e+00 0.0000e+00 1.0000e+00
       22  1    1    2    0    0 -1.6654739799e+03 +1.8210285621e+03 -1.3717758913e+02 2.4715918540e+03 0.0000000000e+00 0.0000e+00 -1.0000e+00
</event>
<event>
 6      1 +1.4834189e-01 1.00002000e+04 7.81653100e-03 6.93871300e-02
  1000022 -1    0    0    0    0 +0.0000000000e+00 +0.0000000000e+00 +4.4721471353e+01 1.0000100000e+04 1.0000000000e+04 0.0000e+00 1.0000e+00
  1000022 -1    0    0    0    0 -0.0000000000e+00 -0.0000000000e+00 -4.4721471353e+01 1.0000100000e+04 1.0000000000e+04 0.0000e+00 1.0000e+00
      -24  1    1    2    0    0 -1.6957302293e+03 +4.5876665973e+03 -8.0915438909e+03 9.4552441019e+03 7.9829010000e+01 0.0000e+00 1.0000e+00
       24  1    1    2    0    0 +1.7901683760e+03 -4.8194868811e+03 +8.5543315630e+03 9.9807373361e+03 7.9829010000e+01 0.0000e+00 1.0000e+00
       22  1    1    2    0    0 +3.5752655770e-01 -1.2875159133e+01 +1.4594683248e+01 1.9465413611e+01 0.0000000000e+00 0.0000e+00 1.0000e+00
       22  1    1    2    0    0 -9.4795673287e+01 +2.4469544296e+02 -4.7738235534e+02 5.4475314838e+02 0.0000000000e+00 0.0000e+00 1.0000e+00
</event>
<event>
 6      1 +1.4834189e-01 1.00472500e+04 7.81653100e-03 6.93588000e-02
  1000022 -1    0    0    0    0 +0.0000000000e+00 +0.0000000000e+00 +4.4721471353e+01 1.0000100000e+04 1.0000000000e+04 0.0000e+00 -1.0000e+00
  1000022 -1    0    0    0    0 -0.0000000000e+00 -0.0000000000e+00 -4.4721471353e+01 1.0000100000e+04 1.0000000000e+04 0.0000e+00 -1.0000e+00
      -24  1    1    2    0    0 +4.6189186006e+02 +4.6535712512e+03 +8.7582422262e+03 9.9288594029e+03 7.9829010000e+01 0.0000e+00 -1.0000e+00
       24  1    1    2    0    0 -9.9762784193e+01 -4.4536250088e+03 -7.7825487534e+03 8.9676733940e+03 7.9829010000e+01 0.0000e+00 -1.0000e+00
       22  1    1    2    0    0 -3.5868177161e+02 -2.1282035527e+02 -9.9576143837e+02 1.0795767500e+03 0.0000000000e+00 0.0000e+00 1.0000e+00
       22  1    1    2    0    0 -3.4473042551e+00 +1.2874112881e+01 +2.0067965574e+01 2.4090453117e+01 0.0000000000e+00 0.0000e+00 -1.0000e+00
</event>
<event>
 6      1 +1.4834189e-01 1.00483300e+04 7.81653100e-03 6.93581500e-02
  1000022 -1    0    0    0    0 +0.0000000000e+00 +0.0000000000e+00 +4.4721471353e+01 1.0000100000e+04 1.0000000000e+04 0.0000e+00 -1.0000e+00
  1000022 -1    0    0    0    0 -0.0000000000e+00 -0.0000000000e+00 -4.4721471353e+01 1.0000100000e+04 1.0000000000e+04 0.0000e+00 -1.0000e+00
      -24  1    1    2    0    0 +7.0920419345e+03 -3.1745198500e+03 +4.9836544558e+03 9.2313498192e+03 7.9829010000e+01 0.0000e+00 1.0000e+00
       24  1    1    2    0    0 -7.6037208160e+03 +3.1458118101e+03 -5.5964813825e+03 9.9518681024e+03 7.9829010000e+01 0.0000e+00 1.0000e+00
       22  1    1    2    0    0 +1.0730997840e+02 -4.7675233187e+01 +7.3291888712e+01 1.3841986951e+02 0.0000000000e+00 0.0000e+00 -1.0000e+00
       22  1    1    2    0    0 +4.0436890312e+02 +7.6383273098e+01 +5.3953503795e+02 6.7856220893e+02 0.0000000000e+00 0.0000e+00 -1.0000e+00
</event>
<event>
 6      1 +1.4834189e-01 1.00120600e+04 7.81653100e-03 6.93799800e-02
  1000022 -1    0    0    0    0 +0.0000000000e+00 +0.0000000000e+00 +4.4721471353e+01 1.0000100000e+04 1.0000000000e+04 0.0000e+00 -1.0000e+00
  1000022 -1    0    0    0    0 -0.0000000000e+00 -0.0000000000e+00 -4.4721471353e+01 1.0000100000e+04 1.0000000000e+04 0.0000e+00 -1.0000e+00
      -24  1    1    2    0    0 -1.2101916530e+02 -1.2071766844e+02 +5.6223131523e+02 5.9303888279e+02 7.9829010000e+01 0.0000e+00 1.0000e+00
       24  1    1    2    0    0 +3.2602303418e+03 +1.0094492428e+03 -9.3866083729e+03 9.9881369170e+03 7.9829010000e+01 0.0000e+00 -1.0000e+00
       22  1    1    2    0    0 -3.1064891838e+01 -2.1301070156e+01 +2.1593305619e+01 4.3416977581e+01 0.0000000000e+00 0.0000e+00 1.0000e+00
       22  1    1    2    0    0 -3.1081462847e+03 -8.6743050423e+02 +8.8027837521e+03 9.3756072226e+03 0.0000000000e+00 0.0000e+00 -1.0000e+00
</event>
<event>
 6      1 +1.4834189e-01 1.00043300e+04 7.81653100e-03 6.93846400e-02
  1000022 -1    0    0    0    0 +0.0000000000e+00 +0.0000000000e+00 +4.4721471353e+01 1.0000100000e+04 1.0000000000e+04 0.0000e+00 1.0000e+00
  1000022 -1    0    0    0    0 -0.0000000000e+00 -0.0000000000e+00 -4.4721471353e+01 1.0000100000e+04 1.0000000000e+04 0.0000e+00 1.0000e+00
      -24  1    1    2    0    0 -1.5966243229e+03 -8.9888050436e+03 +3.4742349486e+03 9.7685467952e+03 7.9829010000e+01 0.0000e+00 -1.0000e+00
       24  1    1    2    0    0 +1.5649535927e+03 +9.0146831740e+03 -3.4238079465e+03 9.7694639566e+03 7.9829010000e+01 0.0000e+00 -1.0000e+00
       22  1    1    2    0    0 -3.5074605534e+01 -2.1035193306e+02 +7.8716321738e+01 2.2732008930e+02 0.0000000000e+00 0.0000e+00 1.0000e+00
       22  1    1    2    0    0 +6.6745335667e+01 +1.8447380268e+02 -1.2914332389e+02 2.3486915892e+02 0.0000000000e+00 0.0000e+00 1.0000e+00
</event>
<event>
 6      1 +1.4834189e-01 1.00041800e+04 7.81653100e-03 6.93847300e-02
  1000022 -1    0    0    0    0 +0.0000000000e+00 +0.0000000000e+00 +4.4721471353e+01 1.0000100000e+04 1.0000000000e+04 0.0000e+00 -1.0000e+00
  1000022 -1    0    0    0    0 -0.0000000000e+00 -0.0000000000e+00 -4.4721471353e+01 1.0000100000e+04 1.0000000000e+04 0.0000e+00 -1.0000e+00
      -24  1    1    2    0    0 +7.1902424169e+03 -6.1792580153e+02 -4.0845595479e+02 7.2287362137e+03 7.9829010000e+01 0.0000e+00 -1.0000e+00
       24  1    1    2    0    0 -9.9293792096e+03 +3.0843799986e+02 +3.8493958009e+02 9.9419443087e+03 7.9829010000e+01 0.0000e+00 -1.0000e+00
       22  1    1    2    0    0 +2.7523780282e+03 +3.5706677262e+02 +1.4895886587e+00 2.7754429753e+03 0.0000000000e+00 0.0000e+00 -1.0000e+00
       22  1    1    2    0    0 -1.3241235513e+01 -4.7578970949e+01 +2.2026786037e+01 5.4076502268e+01 0.0000000000e+00 0.0000e+00 1.0000e+00
</event>
<event>
 6      1 +1.4834189e-01 1.00986300e+04 7.81653100e-03 6.93280400e-02
  1000022 -1    0    0    0    0 +0.0000000000e+00 +0.0000000000e+00 +4.4721471353e+01 1.0000100000e+04 1.0000000000e+04 0.0000e+00 1.0000e+00
  1000022 -1    0    0    0    0 -0.0000000000e+00 -0.0000000000e+00 -4.4721471353e+01 1.0000100000e+04 1.0000000000e+04 0.0000e+00 1.0000e+00
      -24  1    1    2    0    0 +7.8359168890e+03 -8.0119294685e+02 +5.9992613082e+03 9.9015661663e+03 7.9829010000e+01 0.0000e+00 -1.0000e+00
       24  1    1    2    0    0 -6.0482639575e+03 +2.2041991108e+02 -5.2105902996e+03 7.9866579856e+03 7.9829010000e+01 0.0000e+00 -1.0000e+00
       22  1    1    2    0    0 -5.0182115445e+02 +2.8767937364e+00 -4.2114133520e+02 6.5512805711e+02 0.0000000000e+00 0.0000e+00 -1.0000e+00
       22  1    1    2    0    0 -1.2858317771e+03 +5.7789624204e+02 -3.6752967341e+02 1.4568477911e+03 0.0000000000e+00 0.0000e+00 1.0000e+00
</event>
<event>
 6      1 +1.4834189e-01 1.00013000e+04 7.81653100e-03 6.93864700e-02
  1000022 -1    0    0    0    0 +0.0000000000e+00 +0.0000000000e+00 +4.4721471353e+01 1.0000100000e+04 1.0000000000e+04 0.0000e+00 -1.0000e+00
  1000022 -1    0    0    0    0 -0.0000000000e+00 -0.0000000000e+00 -4.4721471353e+01 1.0000100000e+04 1.0000000000e+04 0.0000e+00 -1.0000e+00
      -24  1    1    2    0    0 -2.1237131299e+03 -9.4572760437e+03 -2.0751973113e+03 9.9127717706e+03 7.9829010000e+01 0.0000e+00 -1.0000e+00
       24  1    1    2    0    0 +2.1209371427e+03 +9.4067094952e+03 +2.0915630441e+03 9.8673991776e+03 7.9829010000e+01 0.0000e+00 -1.0000e+00
       22  1    1    2    0    0 -2.1425314240e+01 -8.1094928402e+01 -1.9542910451e+01 8.6124078234e+01 0.0000000000e+00 0.0000e+00 -1.0000e+00
       22  1    1    2    0    0 +2.4201301430e+01 +1.3166147688e+02 +3.1771776171e+00 1.3390497356e+02 0.0000000000e+00 0.0000e+00 -1.0000e+00
</event>
<event>
 6      1 +1.4834189e-01 1.00758200e+04 7.81653100e-03 6.93416800e-02
  1000022 -1    0    0    0    0 +0.0000000000e+00 +0.0000000000e+00 +4.4721471353e+01 1.0000100000e+04 1.0000000000e+04 0.0000e+00 1.0000e+00
  1000022 -1    0    0    0    0 -0.0000000000e+00 -0.0000000000e+00 -4.4721471353e+01 1.0000100000e+04 1.0000000000e+04 0.0000e+00 1.0000e+00
      -24  1    1    2    0    0 +7.1000789401e+03 -2.3678895078e+03 +6.1056369290e+03 9.6593579836e+03 7.9829010000e+01 0.0000e+00 -1.0000e+00
       24  1    1    2    0    0 -7.4138171045e+03 +2.5683097599e+03 -6.0766874005e+03 9.9243841882e+03 7.9829010000e+01 0.0000e+00 -1.0000e+00
       22  1    1    2    0    0 +8.4862765943e+01 -3.0412536259e+01 +7.0564904868e+01 1.1448151468e+02 0.0000000000e+00 0.0000e+00 -1.0000e+00
       22  1    1    2    0    0 +2.2887539843e+02 -1.7000771580e+02 -9.9514433341e+01 3.0197631345e+02 0.0000000000e+00 0.0000e+00 -1.0000e+00
</event>
<event>
 6      1 +1.4834189e-01 1.06791700e+04 7.81653100e-03 6.89927700e-02
  1000022 -1    0    0    0    0 +0.0000000000e+00 +0.0000000000e+00 +4.4721471353e+01 1.0000100000e+04 1.0000000000e+04 0.0000e+00 -1.0000e+00
  1000022 -1    0    0    0    0 -0.0000000000e+00 -0.0000000000e+00 -4.4721471353e+01 1.0000100000e+04 1.0000000000e+04 0.0000e+00 -1.0000e+00
      -24  1    1    2    0    0 -9.1557816862e+02 -7.1396461816e+03 -2.0776578584e+03 7.4923871916e+03 7.9829010000e+01 0.0000e+00 -1.0000e+00
       24  1    1    2    0    0 -5.8879843501e+02 +6.6771181202e+03 +6.3473076960e+02 6.7334868982e+03 7.9829010000e+01 0.0000e+00 -1.0000e+00
       22  1    1    2    0    0 +7.3259683530e+02 +2.2262425380e+03 -1.0966059652e+03 2.5875468313e+03 0.0000000000e+00 0.0000e+00 -1.0000e+00
       22  1    1    2    0    0 +7.7177976833e+02 -1.7637144766e+03 +2.5395330540e+03 3.1867790789e+03 0.0000000000e+00 0.0000e+00 -1.0000e+00
</event>
<event>
 6      1 +1.4834189e-01 1.00019900e+04 7.81653100e-03 6.93860500e-02
  1000022 -1    0    0    0    0 +0.0000000000e+00 +0.0000000000e+00 +4.4721471353e+01 1.0000100000e+04 1.0000000000e+04 0.0000e+00 -1.0000e+00
  1000022 -1    0    0    0    0 -0.0000000000e+00 -0.0000000000e+00 -4.4721471353e+01 1.0000100000e+04 1.0000000000e+04 0.0000e+00 -1.0000e+00
      -24  1    1    2    0    0 +7.9747544791e+03 -5.9795966824e+03 +4.5872442876e+02 9.9784310520e+03 7.9829010000e+01 0.0000e+00 1.0000e+00
       24  1    1    2    0    0 -9.0399400286e+02 +5.7466199676e+02 -2.2033709940e+01 1.0743834152e+03 7.9829010000e+01 0.0000e+00 0.0000e+00
       22  1    1    2    0    0 -7.0894442684e+03 +5.4088626629e+03 -4.3154233552e+02 8.9276113338e+03 0.0000000000e+00 0.0000e+00 1.0000e+00
       22  1    1    2    0    0 +1.8683792145e+01 -3.9279772079e+00 -5.1483833059e+00 1.9774198960e+01 0.0000000000e+00 0.0000e+00 1.0000e+00
</event>
<event>
 6      1 +1.4834189e-01 1.01963300e+04 7.81653100e-03 6.92700600e-02
  1000022 -1    0    0    0    0 +0.0000000000e+00 +0.0000000000e+00 +4.4721471353e+01 1.0000100000e+04 1.0000000000e+04 0.0000e+00 -1.0000e+00
  1000022 -1    0    0    0    0 -0.0000000000e+00 -0.0000000000e+00 -4.4721471353e+01 1.0000100000e+04 1.0000000000e+04 0.0000e+00 -1.0000e+00
      -24  1    1    2    0    0 -5.6519723556e+03 -1.2632867904e+03 -5.3322765947e+03 7.8727524650e+03 7.9829010000e+01 0.0000e+00 1.0000e+00
       24  1    1    2    0    0 +6.2727456319e+03 +5.2891724532e+02 +7.1979652113e+03 9.5626443554e+03 7.9829010000e+01 0.0000e+00 1.0000e+00
       22  1    1    2    0    0 -6.7035127448e+02 +7.2964601317e+02 -2.1017221738e+03 2.3235727300e+03 0.0000000000e+00 0.0000e+00 -1.0000e+00
       22  1    1    2    0    0 +4.9577998145e+01 +4.7235319309e+00 +2.3603355721e+02 2.4123044954e+02 0.0000000000e+00 0.0000e+00 -1.0000e+00
</event>
<event>
 6      1 +1.4834189e-01 1.00111900e+04 7.81653100e-03 6.93805000e-02
  1000022 -1    0    0    0    0 +0.0000000000e+00 +0.0000000000e+00 +4.4721471353e+01 1.0000100000e+04 1.0000000000e+04 0.0000e+00 -1.0000e+00
  1000022 -1    0    0    0    0 -0.0000000000e+00 -0.0000000000e+00 -4.4721471353e+01 1.0000100000e+04 1.0000000000e+04 0.0000e+00 -1.0000e+00
      -24  1    1    2    0    0 -5.5914377989e+02 -7.5223622255e+02 -1.2017564250e+03 1.5261363887e+03 7.9829010000e+01 0.0000e+00 -1.0000e+00
       24  1    1    2    0    0 +1.2695590595e+03 +1.3011926616e+03 +3.1883273521e+03 3.6710606810e+03 7.9829010000e+01 0.0000e+00 0.0000e+00
       22  1    1    2    0    0 +2.0256390173e+03 +2.3469868752e+03 +5.5049960278e+03 6.3179539478e+03 0.0000000000e+00 0.0000e+00 1.0000e+00
       22  1    1    2    0    0 -2.7360542968e+03 -2.8959433142e+03 -7.4915669550e+03 8.4850489825e+03 0.0000000000e+00 0.0000e+00 1.0000e+00
</event>
<event>
 6      1 +1.4834189e-01 1.01265900e+04 7.81653100e-03 6.93113800e-02
  1000022 -1    0    0    0    0 +0.0000000000e+00 +0.0000000000e+00 +4.4721471353e+01 1.0000100000e+04 1.0000000000e+04 0.0000e+00 -1.0000e+00
  1000022 -1    0    0    0    0 -0.0000000000e+00 -0.0000000000e+00 -4.4721471353e+01 1.0000100000e+04 1.0000000000e+04 0.0000e+00 -1.0000e+00
      -24  1    1    2    0    0 -2.7882570909e+03 -1.0161084809e+03 -9.3838209051e+03 9.8422213702e+03 7.9829010000e+01 0.0000e+00 1.0000e+00
       24  1    1    2    0    0 +2.8038431926e+03 +7.3266607963e+02 +9.4122432557e+03 9.8486055870e+03 7.9829010000e+01 0.0000e+00 1.0000e+00
       22  1    1    2    0    0 +1.0080816425e+01 +4.8235556206e+00 +2.2365785078e+01 2.5002357705e+01 0.0000000000e+00 0.0000e+00 -1.0000e+00
       22  1    1    2    0    0 -2.5666918116e+01 +2.7861884560e+02 -5.0788135704e+01 2.8437068509e+02 0.0000000000e+00 0.0000e+00 1.0000e+00
</event>
<event>
 6      1 +1.4834189e-01 1.01736000e+04 7.81653100e-03 6.92834900e-02
  1000022 -1    0    0    0    0 +0.0000000000e+00 +0.0000000000e+00 +4.4721471353e+01 1.0000100000e+04 1.0000000000e+04 0.0000e+00 -1.0000e+00
  1000022 -1    0    0    0    0 -0.0000000000e+00 -0.0000000000e+00 -4.4721471353e+01 1.0000100000e+04 1.0000000000e+04 0.0000e+00 -1.0000e+00
      -24  1    1    2    0    0 -5.2631294967e+03 +7.5073453910e+03 +1.2929048238e+03 9.2595217195e+03 7.9829010000e+01 0.0000e+00 -1.0000e+00
       24  1    1    2    0    0 +5.3816780547e+03 -7.0723643105e+03 -1.9255327316e+03 9.0936705789e+03 7.9829010000e+01 0.0000e+00 -1.0000e+00
       22  1    1    2    0    0 +2.0148742692e+02 -8.9817266778e+02 +5.6474467049e+02 1.0799295659e+03 0.0000000000e+00 0.0000e+00 -1.0000e+00
       22  1    1    2    0    0 -3.2003598493e+02 +4.6319158731e+02 +6.7883237296e+01 5.6707813581e+02 0.0000000000e+00 0.0000e+00 -1.0000e+00
</event>
<event>
 6      1 +1.4834189e-01 1.00003500e+04 7.81653100e-03 6.93870400e-02
  1000022 -1    0    0    0    0 +0.0000000000e+00 +0.0000000000e+00 +4.4721471353e+01 1.0000100000e+04 1.0000000000e+04 0.0000e+00 1.0000e+00
  1000022 -1    0    0    0    0 -0.0000000000e+00 -0.0000000000e+00 -4.4721471353e+01 1.0000100000e+04 1.0000000000e+04 0.0000e+00 1.0000e+00
      -24  1    1    2    0    0 +2.3806397717e+03 -8.0598292971e+03 +5.2341694524e+03 9.9010704749e+03 7.9829010000e+01 0.0000e+00 -1.0000e+00
       24  1    1    2    0    0 -2.1107423345e+03 +7.2240244624e+03 -4.6616497147e+03 8.8531979176e+03 7.9829010000e+01 0.0000e+00 -1.0000e+00
       22  1    1    2    0    0 +2.3797681266e+01 -8.0754323607e+01 +5.1673159180e+01 9.8781100392e+01 0.0000000000e+00 0.0000e+00 -1.0000e+00
       22  1    1    2    0    0 -2.9369511854e+02 +9.1655915835e+02 -6.2419289695e+02 1.1471505071e+03 0.0000000000e+00 0.0000e+00 -1.0000e+00
</event>
<event>
 6      1 +1.4834189e-01 1.02185000e+04 7.81653100e-03 6.92569900e-02
  1000022 -1    0    0    0    0 +0.0000000000e+00 +0.0000000000e+00 +4.4721471353e+01 1.0000100000e+04 1.0000000000e+04 0.0000e+00 -1.0000e+00
  1000022 -1    0    0    0    0 -0.0000000000e+00 -0.0000000000e+00 -4.4721471353e+01 1.0000100000e+04 1.0000000000e+04 0.0000e+00 -1.0000e+00
      -24  1    1    2    0    0 -4.6966707061e+02 +3.1655105784e+03 -4.7829314170e+02 3.2366929696e+03 7.9829010000e+01 0.0000e+00 -1.0000e+00
       24  1    1    2    0    0 +2.8739431057e+03 -5.0393533921e+03 +1.7522397439e+03 6.0606392713e+03 7.9829010000e+01 0.0000e+00 -1.0000e+00
       22  1    1    2    0    0 +2.2146531842e+03 -2.7323511177e+03 +1.2148492889e+03 3.7210603531e+03 0.0000000000e+00 0.0000e+00 1.0000e+00
       22  1    1    2    0    0 -4.6189292193e+03 +4.6061939314e+03 -2.4887958910e+03 6.9818074060e+03 0.0000000000e+00 0.0000e+00 -1.0000e+00
</event>
<event>
 6      1 +1.4834189e-01 1.00013800e+04 7.81653100e-03 6.93864200e-02
  1000022 -1    0    0    0    0 +0.0000000000e+00 +0.0000000000e+00 +4.4721471353e+01 1.0000100000e+04 1.0000000000e+04 0.0000e+00 1.0000e+00
  1000022 -1    0    0    0    0 -0.0000000000e+00 -0.0000000000e+00 -4.4721471353e+01 1.0000100000e+04 1.0000000000e+04 0.0000e+00 1.0000e+00
      -24  1    1    2    0    0 +2.0360690191e+03 -5.0505328190e+03 +8.3567311425e+03 9.9747073573e+03 7.9829010000e+01 0.0000e+00 -1.0000e+00
       24  1    1    2    0    0 -1.8768670012e+03 +4.6645031866e+03 -7.8301928912e+03 9.3058322090e+03 7.9829010000e+01 0.0000e+00 -1.0000e+00
       22  1    1    2    0    0 -1.6509861134e+02 +3.9520914976e+02 -5.4803692870e+02 6.9555179443e+02 0.0000000000e+00 0.0000e+00 1.0000e+00
       22  1    1    2    0    0 +5.8965934286e+00 -9.1795173900e+00 +2.1498677440e+01 2.4108639224e+01 0.0000000000e+00 0.0000e+00 -1.0000e+00
</event>
<event>
 6      1 +1.4834189e-01 1.01376000e+04 7.81653100e-03 6.93048300e-02
  1000022 -1    0    0    0    0 +0.0000000000e+00 +0.0000000000e+00 +4.4721471353e+01 1.0000100000e+04 1.0000000000e+04 0.0000e+00 1.0000e+00
  1000022 -1    0    0    0    0 -0.0000000000e+00 -0.0000000000e+00 -4.4721471353e+01 1.0000100000e+04 1.0000000000e+04 0.0000e+00 1.0000e+00
      -24  1    1    2    0    0 +6.4892223352e+03 +6.4580600705e+02 +4.2557559389e+03 7.7874837525e+03 7.9829010000e+01 0.0000e+00 1.0000e+00
       24  1    1    2    0    0 -7.8772848729e+03 -1.6019632904e+03 -5.7137225891e+03 9.8626011706e+03 7.9829010000e+01 0.0000e+00 1.0000e+00
       22  1    1    2    0    0 +7.8811795233e+02 +1.2409946975e+02 +4.7029870874e+02 9.2612712984e+02 0.0000000000e+00 0.0000e+00 -1.0000e+00
       22  1    1    2    0    0 +5.9994458544e+02 +8.3205781358e+02 +9.8766794150e+02 1.4239879471e+03 0.0000000000e+00 0.0000e+00 1.0000e+00
</event>
<event>
 6      1 +1.4834189e-01 1.01674000e+04 7.81653100e-03 6.92871600e-02
  1000022 -1    0    0    0    0 +0.0000000000e+00 +0.0000000000e+00 +4.4721471353e+01 1.0000100000e+04 1.0000000000e+04 0.0000e+00 -1.0000e+00
  1000022 -1    0    0    0    0 -0.0000000000e+00 -0.0000000000e+00 -4.4721471353e+01 1.0000100000e+04 1.0000000000e+04 0.0000e+00 -1.0000e+00
      -24  1    1    2    0    0 -7.7405649038e+03 -4.1355559859e+03 -4.4337820847e+03 9.8328004448e+03 7.9829010000e+01 0.0000e+00 -1.0000e+00
       24  1    1    2    0    0 +3.5371958492e+03 +1.9341504813e+03 +1.7928706796e+03 4.4128732708e+03 7.9829010000e+01 0.0000e+00 -1.0000e+00
       22  1    1    2    0    0 +3.5313761195e+03 +1.7325875036e+03 +1.2271425519e+03 4.1204800203e+03 0.0000000000e+00 0.0000e+00 -1.0000e+00
       22  1    1    2    0    0 +6.7199293507e+02 +4.6881800109e+02 +1.4137688532e+03 1.6340462641e+03 0.0000000000e+00 0.0000e+00 1.0000e+00
</event>
<event>
 6      1 +1.4834189e-01 1.00001000e+04 7.81653100e-03 6.93871900e-02
  1000022 -1    0    0    0    0 +0.0000000000e+00 +0.0000000000e+00 +4.4721471353e+01 1.0000100000e+04 1.0000000000e+04 0.0000e+00 1.0000e+00
  1000022 -1    0    0    0    0 -0.0000000000e+00 -0.0000000000e+00 -4.4721471353e+01 1.0000100000e+04 1.0000000000e+04 0.0000e+00 1.0000e+00
      -24  1    1    2    0    0 +5.9724182857e+03 +5.6995644699e+03 +5.5365825292e+03 9.9405701094e+03 7.9829010000e+01 0.0000e+00 1.0000e+00
       24  1    1    2    0    0 -5.9710225903e+03 -5.6942065710e+03 -5.5338694332e+03 9.9351488576e+03 7.9829010000e+01 0.0000e+00 1.0000e+00
       22  1    1    2    0    0 -3.7982847921e+01 -3.8348957340e+01 -3.6130217384e+01 6.4951765745e+01 0.0000000000e+00 0.0000e+00 -1.0000e+00
       22  1    1    2    0    0 +3.6587152476e+01 +3.2991058421e+01 +3.3417121367e+01 5.9529267276e+01 0.0000000000e+00 0.0000e+00 1.0000e+00
</event>
<event>
 6      1 +1.4834189e-01 1.02193600e+04 7.81653100e-03 6.92564800e-02
  1000022 -1    0    0    0    0 +0.0000000000e+00 +0.0000000000e+00 +4.4721471353e+01 1.0000100000e+04 1.0000000000e+04 0.0000e+00 -1.0000e+00
  1000022 -1    0    0    0    0 -0.0000000000e+00 -0.0000000000e+00 -4.4721471353e+01 1.0000100000e+04 1.0000000000e+04 0.0000e+00 -1.0000e+00
      -24  1    1    2    0    0 +2.7993601807e+03 -4.3912982885e+03 +2.5511876905e+02 5.2145351027e+03 7.9829010000e+01 0.0000e+00 1.0000e+00
       24  1    1    2    0    0 -5.3053979154e+03 +7.8418054509e+03 -9.9471433275e+02 9.5203460570e+03 7.9829010000e+01 0.0000e+00 1.0000e+00
       22  1    1    2    0    0 +3.0413156576e+03 -3.3934190711e+03 +2.9368239950e+02 4.5663052103e+03 0.0000000000e+00 0.0000e+00 1.0000e+00
       22  1    1    2    0    0 -5.3527792296e+02 -5.7088091295e+01 +4.4591316420e+02 6.9901363004e+02 0.0000000000e+00 0.0000e+00 -1.0000e+00
</event>
<event>
 6      1 +1.4834189e-01 9.48177300e+03 7.81653100e-03 6.97100900e-02
  1000022 -1    0    0    0    0 +0.0000000000e+00 +0.0000000000e+00 +4.4721471353e+01 1.0000100000e+04 1.0000000000e+04 0.0000e+00 -1.0000e+00
  1000022 -1    0    0    0    0 -0.0000000000e+00 -0.0000000000e+00 -4.4721471353e+01 1.0000100000e+04 1.0000000000e+04 0.0000e+00 -1.0000e+00
      -24  1    1    2    0    0 -5.0866569850e+03 +2.6717286028e+03 -7.1901470638e+03 9.2041729927e+03 7.9829010000e+01 0.0000e+00 1.0000e+00
       24  1    1    2    0    0 +3.8818778957e+02 -9.2983193460e+02 +4.4806454963e+01 1.0117595939e+03 7.9829010000e+01 0.0000e+00 -1.0000e+00
       22  1    1    2    0    0 -2.5899736956e+02 +1.7032805228e+02 -4.3069635241e+02 5.3065113852e+02 0.0000000000e+00 0.0000e+00 -1.0000e+00
       22  1    1    2    0    0 +4.9574665650e+03 -1.9122247205e+03 +7.5760369613e+03 9.2536162749e+03 0.0000000000e+00 0.0000e+00 1.0000e+00
</event>
<event>
 6      1 +1.4834189e-01 6.93184500e+03 7.81653100e-03 7.16739800e-02
  1000022 -1    0    0    0    0 +0.0000000000e+00 +0.0000000000e+00 +4.4721471353e+01 1.0000100000e+04 1.0000000000e+04 0.0000e+00 1.0000e+00
  1000022 -1    0    0    0    0 -0.0000000000e+00 -0.0000000000e+00 -4.4721471353e+01 1.0000100000e+04 1.0000000000e+04 0.0000e+00 1.0000e+00
      -24  1    1    2    0    0 +3.8228521674e+03 -2.4475437918e+03 -2.7411577394e+03 5.3032997020e+03 7.9829010000e+01 0.0000e+00 1.0000e+00
       24  1    1    2    0    0 -4.6460026169e+03 -8.8814328459e+02 +2.1530297053e+03 5.1976964506e+03 7.9829010000e+01 0.0000e+00 1.0000e+00
       22  1    1    2    0    0 -1.7816971980e+03 +5.1108298505e+03 +2.3357350344e+03 5.8949711464e+03 0.0000000000e+00 0.0000e+00 1.0000e+00
       22  1    1    2    0    0 +2.6048476475e+03 -1.7751427741e+03 -1.7476070004e+03 3.6042327009e+03 0.0000000000e+00 0.0000e+00 1.0000e+00
</event>
<event>
 6      1 +1.4834189e-01 1.00426300e+04 7.81653100e-03 6.93615800e-02
  1000022 -1    0    0    0    0 +0.0000000000e+00 +0.0000000000e+00 +4.4721471353e+01 1.0000100000e+04 1.0000000000e+04 0.0000e+00 -1.0000e+00
  1000022 -1    0    0    0    0 -0.0000000000e+00 -0.0000000000e+00 -4.4721471353e+01 1.0000100000e+04 1.0000000000e+04 0.0000e+00 -1.0000e+00
      -24  1    1    2    0    0 -2.4304848377e+03 -2.2734368599e+03 -9.3846175290e+03 9.9575695096e+03 7.9829010000e+01 0.0000e+00 -1.0000e+00
       24  1    1    2    0    0 +1.0975443079e+03 +7.1777719840e+02 +2.3584747529e+03 2.6997376623e+03 7.9829010000e+01 0.0000e+00 -1.0000e+00
       22  1    1    2    0    0 +1.3092860273e+03 +1.5325350913e+03 +7.0264112523e+03 7.3098118166e+03 0.0000000000e+00 0.0000e+00 -1.0000e+00
       22  1    1    2    0    0 +2.3654502498e+01 +2.3124570264e+01 -2.6847622346e-01 3.3081011439e+01 0.0000000000e+00 0.0000e+00 1.0000e+00
</event>
<event>
 6      1 +1.4834189e-01 1.00001400e+04 7.81653100e-03 6.93871700e-02
  1000022 -1    0    0    0    0 +0.0000000000e+00 +0.0000000000e+00 +4.4721471353e+01 1.0000100000e+04 1.0000000000e+04 0.0000e+00 1.0000e+00
  1000022 -1    0    0    0    0 -0.0000000000e+00 -0.0000000000e+00 -4.4721471353e+01 1.0000100000e+04 1.0000000000e+04 0.0000e+00 1.0000e+00
      -24  1    1    2    0    0 -4.0239745140e+03 -7.9123285235e+03 -2.5682629142e+03 9.2411936794e+03 7.9829010000e+01 0.0000e+00 -1.0000e+00
       24  1    1    2    0    0 +3.9355692750e+03 +7.6035784014e+03 +2.5476232611e+03 8.9330771281e+03 7.9829010000e+01 0.0000e+00 -1.0000e+00
       22  1    1    2    0    0 -3.5604524499e+02 -6.2556746778e+02 -2.4037667946e+02 7.5887009511e+02 0.0000000000e+00 0.0000e+00 1.0000e+00
       22  1    1    2    0    0 +4.4445048403e+02 +9.3431758984e+02 +2.6101633260e+02 1.0670590974e+03 0.0000000000e+00 0.0000e+00 -1.0000e+00
</event>
<event>
 6      1 +1.4834189e-01 1.00079900e+04 7.81653100e-03 6.93824300e-02
  1000022 -1    0    0    0    0 +0.0000000000e+00 +0.0000000000e+00 +4.4721471353e+01 1.0000100000e+04 1.0000000000e+04 0.0000e+00 1.0000e+00
  1000022 -1    0    0    0    0 -0.0000000000e+00 -0.0000000000e+00 -4.4721471353e+01 1.0000100000e+04 1.0000000000e+04 0.0000e+00 1.0000e+00
      -24  1    1    2    0    0 +5.8592021455e+03 +1.8146301508e+03 +7.8250742439e+03 9.9429015865e+03 7.9829010000e+01 0.0000e+00 1.0000e+00
       24  1    1    2    0    0 -2.3833166578e+02 +6.6462697292e+00 -3.1572842467e+02 4.0361276590e+02 7.9829010000e+01 0.0000e+00 0.0000e+00
       22  1    1    2    0    0 +2.7181350247e+01 +1.2032105703e+01 +3.9337098019e+01 4.9305219292e+01 0.0000000000e+00 0.0000e+00 1.0000e+00
       22  1    1    2    0    0 -5.6480518299e+03 -1.8333085262e+03 -7.5486829173e+03 9.6043804283e+03 0.0000000000e+00 0.0000e+00 1.0000e+00
</event>
<event>
 6      1 +1.4834189e-01 1.15097900e+04 7.81653100e-03 6.85485900e-02
  1000022 -1    0    0    0    0 +0.0000000000e+00 +0.0000000000e+00 +4.4721471353e+01 1.0000100000e+04 1.0000000000e+04 0.0000e+00 -1.0000e+00
  1000022 -1    0    0    0    0 -0.0000000000e+00 -0.0000000000e+00 -4.4721471353e+01 1.0000100000e+04 1.0000000000e+04 0.0000e+00 -1.0000e+00
      -24  1    1    2    0    0 -1.0010504604e+03 +7.1011771927e+03 +4.5444373108e+03 8.4904123981e+03 7.9829010000e+01 0.0000e+00 -1.0000e+00
       24  1    1    2    0    0 +4.2268859902e+02 -7.4518752693e+03 -1.3830548526e+03 7.5913321675e+03 7.9829010000e+01 0.0000e+00 -1.0000e+00
       22  1    1    2    0    0 -1.8332257864e+02 -6.5964727905e+02 -2.2434976867e+02 7.2046826391e+02 0.0000000000e+00 0.0000e+00 -1.0000e+00
       22  1    1    2    0    0 +7.6168443999e+02 +1.0103453556e+03 -2.9370326895e+03 3.1979871705e+03 0.0000000000e+00 0.0000e+00 -1.0000e+00
</event>
<event>
 6      1 +1.4834189e-01 1.01996100e+04 7.81653100e-03 6.92681200e-02
  1000022 -1    0    0    0    0 +0.0000000000e+00 +0.0000000000e+00 +4.4721471353e+01 1.0000100000e+04 1.0000000000e+04 0.0000e+00 -1.0000e+00
  1000022 -1    0    0    0    0 -0.0000000000e+00 -0.0000000000e+00 -4.4721471353e+01 1.0000100000e+04 1.0000000000e+04 0.0000e+00 -1.0000e+00
      -24  1    1    2    0    0 +4.4491092186e+02 -1.2933207278e+03 -1.3146855188e+02 1.3763287705e+03 7.9829010000e+01 0.0000e+00 1.0000e+00
       24  1    1    2    0    0 -3.6762428259e+03 +8.9893506376e+03 +1.3122760029e+03 9.8005932054e+03 7.9829010000e+01 0.0000e+00 1.0000e+00
       22  1    1    2    0    0 -3.4122076611e+02 -1.5997574189e+02 -1.9766029946e+02 4.2555075279e+02 0.0000000000e+00 0.0000e+00 1.0000e+00
       22  1    1    2    0    0 +3.5725526701e+03 -7.5360541679e+03 -9.8314715159e+02 8.3977272713e+03 0.0000000000e+00 0.0000e+00 1.0000e+00
</event>
<event>
 6      1 +1.4834189e-01 1.00048400e+04 7.81653100e-03 6.93843300e-02
  1000022 -1    0    0    0    0 +0.0000000000e+00 +0.0000000000e+00 +4.4721471353e+01 1.0000100000e+04 1.0000000000e+04 0.0000e+00 1.0000e+00
  1000022 -1    0    0    0    0 -0.0000000000e+00 -0.0000000000e+00 -4.4721471353e+01 1.0000100000e+04 1.0000000000e+04 0.0000e+00 1.0000e+00
      -24  1    1    2    0    0 +6.2773097379e+03 -1.2401640774e+03 -7.5482016361e+03 9.8956730492e+03 7.9829010000e+01 0.0000e+00 -1.0000e+00
       24  1    1    2    0    0 -6.3629527581e+03 +1.2779158339e+03 +7.6013533223e+03 9.9953580067e+03 7.9829010000e+01 0.0000e+00 -1.0000e+00
       22  1    1    2    0    0 +1.7246147191e+01 -5.3533662406e+00 -1.8760465558e+01 2.6039262489e+01 0.0000000000e+00 0.0000e+00 -1.0000e+00
       22  1    1    2    0    0 +6.8396872994e+01 -3.2398390276e+01 -3.4391220552e+01 8.3129681697e+01 0.0000000000e+00 0.0000e+00 1.0000e+00
</event>
<event>
 6      1 +1.4834189e-01 1.00031600e+04 7.81653100e-03 6.93853500e-02
  1000022 -1    0    0    0    0 +0.0000000000e+00 +0.0000000000e+00 +4.4721471353e+01 1.0000100000e+04 1.0000000000e+04 0.0000e+00 -1.0000e+00
  1000022 -1    0    0    0    0 -0.0000000000e+00 -0.0000000000e+00 -4.4721471353e+01 1.0000100000e+04 1.0000000000e+04 0.0000e+00 -1.0000e+00
      -24  1    1    2    0    0 -2.7088821962e+03 +2.7599815387e+03 -9.2184013524e+03 9.9970414129e+03 7.9829010000e+01 0.0000e+00 1.0000e+00
       24  1    1    2    0    0 +2.6675829433e+03 -2.6968194242e+03 +8.9417719528e+03 9.7134181467e+03 7.9829010000e+01 0.0000e+00 1.0000e+00
       22  1    1    2    0    0 +4.8588612606e+01 -4.7807444203e+01 +2.0167747247e+02 2.1288543373e+02 0.0000000000e+00 0.0000e+00 1.0000e+00
       22  1    1    2    0    0 -7.2893597025e+00 -1.5354670311e+01 +7.4951927131e+01 7.6855006641e+01 0.0000000000e+00 0.0000e+00 -1.0000e+00
</event>
<event>
 6      1 +1.4834189e-01 1.03940800e+04 7.81653100e-03 6.91546600e-02
  1000022 -1    0    0    0    0 +0.0000000000e+00 +0.0000000000e+00 +4.4721471353e+01 1.0000100000e+04 1.0000000000e+04 0.0000e+00 -1.0000e+00
  1000022 -1    0    0    0    0 -0.0000000000e+00 -0.0000000000e+00 -4.4721471353e+01 1.0000100000e+04 1.0000000000e+04 0.0000e+00 -1.0000e+00
      -24  1    1    2    0    0 +3.8244218850e+03 +7.3968448822e+03 +3.3939554846e+03 8.9924870568e+03 7.9829010000e+01 0.0000e+00 1.0000e+00
       24  1    1    2    0    0 -2.4714898082e+03 -7.6042563772e+03 -3.7670461052e+03 8.8391168084e+03 7.9829010000e+01 0.0000e+00 1.0000e+00
       22  1    1    2    0    0 -4.2700433522e+02 -4.6231942032e+02 -4.3843538126e+02 7.6700556206e+02 0.0000000000e+00 0.0000e+00 1.0000e+00
       22  1    1    2    0    0 -9.2592774164e+02 +6.6973091539e+02 +8.1152600190e+02 1.4015905727e+03 0.0000000000e+00 0.0000e+00 -1.0000e+00
</event>
<event>
 6      1 +1.4834189e-01 1.00049300e+04 7.81653100e-03 6.93842800e-02
  1000022 -1    0    0    0    0 +0.0000000000e+00 +0.0000000000e+00 +4.4721471353e+01 1.0000100000e+04 1.0000000000e+04 0.0000e+00 -1.0000e+00
  1000022 -1    0    0    0    0 -0.0000000000e+00 -0.0000000000e+00 -4.4721471353e+01 1.0000100000e+04 1.0000000000e+04 0.0000e+00 -1.0000e+00
      -24  1    1    2    0    0 +2.6121720110e+03 -4.8300472855e+03 -8.3514203595e+03 9.9952685851e+03 7.9829010000e+01 0.0000e+00 1.0000e+00
       24  1    1    2    0    0 -2.5462692752e+03 +4.7462862688e+03 +8.1845786986e+03 9.7981846130e+03 7.9829010000e+01 0.0000e+00 1.0000e+00
       22  1    1    2    0    0 -2.0816986556e+01 +3.7806513585e+00 +6.7712503645e+00 2.2214636739e+01 0.0000000000e+00 0.0000e+00 -1.0000e+00
       22  1    1    2    0    0 -4.5085749257e+01 +7.9980365367e+01 +1.6007041060e+02 1.8453216516e+02 0.0000000000e+00 0.0000e+00 1.0000e+00
</event>
<event>
 6      1 +1.4834189e-01 1.05256400e+04 7.81653100e-03 6.90793100e-02
  1000022 -1    0    0    0    0 +0.0000000000e+00 +0.0000000000e+00 +4.4721471353e+01 1.0000100000e+04 1.0000000000e+04 0.0000e+00 -1.0000e+00
  1000022 -1    0    0    0    0 -0.0000000000e+00 -0.0000000000e+00 -4.4721471353e+01 1.0000100000e+04 1.0000000000e+04 0.0000e+00 -1.0000e+00
      -24  1    1    2    0    0 -7.8950795651e+03 -3.9852945215e+03 -5.2072171884e+02 8.8595924027e+03 7.9829010000e+01 0.0000e+00 1.0000e+00
       24  1    1    2    0    0 +8.5142446865e+03 +3.6570640604e+03 -9.1674764039e+02 9.3119965115e+03 7.9829010000e+01 0.0000e+00 1.0000e+00
       22  1    1    2    0    0 -7.6730778677e+02 +2.6366969381e+02 +1.4551406861e+03 1.6660484277e+03 0.0000000000e+00 0.0000e+00 -1.0000e+00
       22  1    1    2    0    0 +1.4814266541e+02 +6.4560767389e+01 -1.7671326907e+01 1.6256265806e+02 0.0000000000e+00 0.0000e+00 1.0000e+00
</event>
<event>
 6      1 +1.4834189e-01 1.02689900e+04 7.81653100e-03 6.92273500e-02
  1000022 -1    0    0    0    0 +0.0000000000e+00 +0.0000000000e+00 +4.4721471353e+01 1.0000100000e+04 1.0000000000e+04 0.0000e+00 1.0000e+00
  1000022 -1    0    0    0    0 -0.0000000000e+00 -0.0000000000e+00 -4.4721471353e+01 1.0000100000e+04 1.0000000000e+04 0.0000e+00 1.0000e+00
      -24  1    1    2    0    0 -4.1036435763e+02 +9.6886226735e+03 +8.0763043439e+02 9.7312099866e+03 7.9829010000e+01 0.0000e+00 -1.0000e+00
       24  1    1    2    0    0 +1.3864426377e+03 -4.3579325446e+03 -1.8494105865e+02 4.5775949053e+03 7.9829010000e+01 0.0000e+00 -1.0000e+00
       22  1    1    2    0    0 -1.2480750138e+03 -5.2139332212e+03 -5.8934658982e+02 5.3935257743e+03 0.0000000000e+00 0.0000e+00 -1.0000e+00
       22  1    1    2    0    0 +2.7199673367e+02 -1.1675690765e+02 -3.3342785916e+01 2.9786933374e+02 0.0000000000e+00 0.0000e+00 1.0000e+00
</event>
<event>
 6      1 +1.4834189e-01 1.00100800e+04 7.81653100e-03 6.93811700e-02
  1000022 -1    0    0    0    0 +0.0000000000e+00 +0.0000000000e+00 +4.4721471353e+01 1.0000100000e+04 1.0000000000e+04 0.0000e+00 -1.0000e+00
  1000022 -1    0    0    0    0 -0.0000000000e+00 -0.0000000000e+00 -4.4721471353e+01 1.0000100000e+04 1.0000000000e+04 0.0000e+00 -1.0000e+00
      -24  1    1    2    0    0 +9.6108671082e+03 +1.1072851234e+03 +1.4551567296e+03 9.7835934449e+03 7.9829010000e+01 0.0000e+00 1.0000e+00
       24  1    1    2    0    0 -9.8284933237e+03 -1.0809084121e+03 -1.4242366755e+03 9.9901184571e+03 7.9829010000e+01 0.0000e+00 1.0000e+00
       22  1    1    2    0    0 +2.0973286446e+02 -1.9896319719e+01 -2.0134365451e+01 2.1163442689e+02 0.0000000000e+00 0.0000e+00 1.0000e+00
       22  1    1    2    0    0 +7.8933509929e+00 -6.4803916304e+00 -1.0785688663e+01 1.4853671112e+01 0.0000000000e+00 0.0000e+00 1.0000e+00
</event>
<event>
 6      1 +1.4834189e-01 1.00020000e+04 7.81653100e-03 6.93860500e-02
  1000022 -1    0    0    0    0 +0.0000000000e+00 +0.0000000000e+00 +4.4721471353e+01 1.0000100000e+04 1.0000000000e+04 0.0000e+00 1.0000e+00
  1000022 -1    0    0    0    0 -0.0000000000e+00 -0.0000000000e+00 -4.4721471353e+01 1.0000100000e+04 1.0000000000e+04 0.0000e+00 1.0000e+00
      -24  1    1    2    0    0 -1.6561256774e+03 -8.2229386134e+03 -4.8968940116e+03 9.7131568160e+03 7.9829010000e+01 0.0000e+00 -1.0000e+00
       24  1    1    2    0    0 +1.6766457828e+03 +8.4026883031e+03 +4.9795495867e+03 9.9105296809e+03 7.9829010000e+01 0.0000e+00 -1.0000e+00
       22  1    1    2    0    0 -4.3496375274e+01 -2.3997449724e+02 -1.4755111356e+02 2.8504565441e+02 0.0000000000e+00 0.0000e+00 1.0000e+00
       22  1    1    2    0    0 +2.2976269887e+01 +6.0224807583e+01 +6.4895538530e+01 9.1467848709e+01 0.0000000000e+00 0.0000e+00 -1.0000e+00
</event>
<event>
 6      1 +1.4834189e-01 1.00271100e+04 7.81653100e-03 6.93709100e-02
  1000022 -1    0    0    0    0 +0.0000000000e+00 +0.0000000000e+00 +4.4721471353e+01 1.0000100000e+04 1.0000000000e+04 0.0000e+00 1.0000e+00
  1000022 -1    0    0    0    0 -0.0000000000e+00 -0.0000000000e+00 -4.4721471353e+01 1.0000100000e+04 1.0000000000e+04 0.0000e+00 1.0000e+00
      -24  1    1    2    0    0 -3.8344752016e+02 +5.4969606558e+00 -2.6368604610e+02 4.7219193030e+02 7.9829010000e+01 0.0000e+00 -1.0000e+00
       24  1    1    2    0    0 +8.6842760653e+03 +3.6324942356e+03 +3.2174882492e+03 9.9483801925e+03 7.9829010000e+01 0.0000e+00 1.0000e+00
       22  1    1    2    0    0 +1.7558916481e+01 +6.0932981106e+00 +1.6289980479e+01 2.4714515853e+01 0.0000000000e+00 0.0000e+00 -1.0000e+00
       22  1    1    2    0    0 -8.3183874616e+03 -3.6440844944e+03 -2.9700921836e+03 9.5549133613e+03 0.0000000000e+00 0.0000e+00 1.0000e+00
</event>
<event>
 6      1 +1.4834189e-01 1.00008600e+04 7.81653100e-03 6.93867400e-02
  1000022 -1    0    0    0    0 +0.0000000000e+00 +0.0000000000e+00 +4.4721471353e+01 1.0000100000e+04 1.0000000000e+04 0.0000e+00 1.0000e+00
  1000022 -1    0    0    0    0 -0.0000000000e+00 -0.0000000000e+00 -4.4721471353e+01 1.0000100000e+04 1.0000000000e+04 0.0000e+00 1.0000e+00
      -24  1    1    2    0    0 +3.0113220310e+01 +2.3268112456e+02 +7.1955464165e+02 7.6103801806e+02 7.9829010000e+01 0.0000e+00 0.0000e+00
       24  1    1    2    0    0 -8.1474704672e+01 -3.5658000826e+02 -1.1348454094e+03 1.1950038510e+03 7.9829010000e+01 0.0000e+00 0.0000e+00
       22  1    1    2    0    0 -4.6714490094e+02 -2.6581920039e+03 -8.3804661690e+03 8.8043411052e+03 0.0000000000e+00 0.0000e+00 1.0000e+00
       22  1    1    2    0    0 +5.1850638530e+02 +2.7820908876e+03 +8.7957569367e+03 9.2398170257e+03 0.0000000000e+00 0.0000e+00 1.0000e+00
</event>
<event>
 6      1 +1.4834189e-01 1.00001600e+04 7.81653100e-03 6.93871600e-02
  1000022 -1    0    0    0    0 +0.0000000000e+00 +0.0000000000e+00 +4.4721471353e+01 1.0000100000e+04 1.0000000000e+04 0.0000e+00 -1.0000e+00
  1000022 -1    0    0    0    0 -0.0000000000e+00 -0.0000000000e+00 -4.4721471353e+01 1.0000100000e+04 1.0000000000e+04 0.0000e+00 -1.0000e+00
      -24  1    1    2    0    0 +5.5553688704e+03 +2.6184039105e+03 +2.6563593759e+03 6.6918442995e+03 7.9829010000e+01 0.0000e+00 -1.0000e+00
       24  1    1    2    0    0 -8.1926680099e+03 -3.9087446100e+03 -3.9967965680e+03 9.9186112447e+03 7.9829010000e+01 0.0000e+00 -1.0000e+00
       22  1    1    2    0    0 -7.2224480720e+01 -2.2079146335e+01 -3.0763693033e+01 8.1549182260e+01 0.0000000000e+00 0.0000e+00 1.0000e+00
       22  1    1    2    0    0 +2.7095236202e+03 +1.3124198458e+03 +1.3712008851e+03 3.3081952735e+03 0.0000000000e+00 0.0000e+00 -1.0000e+00
</event>
<event>
 6      1 +1.4834189e-01 1.00006500e+04 7.81653100e-03 6.93868600e-02
  1000022 -1    0    0    0    0 +0.0000000000e+00 +0.0000000000e+00 +4.4721471353e+01 1.0000100000e+04 1.0000000000e+04 0.0000e+00 1.0000e+00
  1000022 -1    0    0    0    0 -0.0000000000e+00 -0.0000000000e+00 -4.4721471353e+01 1.0000100000e+04 1.0000000000e+04 0.0000e+00 1.0000e+00
      -24  1    1    2    0    0 +3.5038789343e+03 -5.9850030146e+03 -7.1005065780e+03 9.9257742774e+03 7.9829010000e+01 0.0000e+00 -1.0000e+00
       24  1    1    2    0    0 -3.3962309450e+03 +5.7774698351e+03 +6.8243244989e+03 9.5651095061e+03 7.9829010000e+01 0.0000e+00 -1.0000e+00
       22  1    1    2    0    0 +2.2808685907e+01 -4.4959482195e+01 -5.3858783200e+01 7.3772350646e+01 0.0000000000e+00 0.0000e+00 -1.0000e+00
       22  1    1    2    0    0 -1.3045667515e+02 +2.5249266171e+02 +3.3004086226e+02 4.3554386584e+02 0.0000000000e+00 0.0000e+00 -1.0000e+00
</event>
<event>
 6      1 +1.4834189e-01 1.00356000e+04 7.81653100e-03 6.93658000e-02
  1000022 -1    0    0    0    0 +0.0000000000e+00 +0.0000000000e+00 +4.4721471353e+01 1.0000100000e+04 1.0000000000e+04 0.0000e+00 1.0000e+00
  1000022 -1    0    0    0    0 -0.0000000000e+00 -0.0000000000e+00 -4.4721471353e+01 1.0000100000e+04 1.0000000000e+04 0.0000e+00 1.0000e+00
      -24  1    1    2    0    0 +9.5755520033e+03 +2.0136973707e+03 +1.7039868265e+03 9.9325785698e+03 7.9829010000e+01 0.0000e+00 -1.0000e+00
       24  1    1    2    0    0 -9.5994691302e+03 -1.9061170254e+03 -1.6854996048e+03 9.9312824592e+03 7.9829010000e+01 0.0000e+00 -1.0000e+00
       22  1    1    2    0    0 -6.5145210962e+00 -1.0369970234e+02 -9.3239703240e+00 1.0432163569e+02 0.0000000000e+00 0.0000e+00 -1.0000e+00
       22  1    1    2    0    0 +3.0431647928e+01 -3.8806429508e+00 -9.1632513685e+00 3.2017335320e+01 0.0000000000e+00 0.0000e+00 -1.0000e+00
</event>
<event>
 6      1 +1.4834189e-01 1.00577400e+04 7.81653100e-03 6.93525100e-02
  1000022 -1    0    0    0    0 +0.0000000000e+00 +0.0000000000e+00 +4.4721471353e+01 1.0000100000e+04 1.0000000000e+04 0.0000e+00 1.0000e+00
  1000022 -1    0    0    0    0 -0.0000000000e+00 -0.0000000000e+00 -4.4721471353e+01 1.0000100000e+04 1.0000000000e+04 0.0000e+00 1.0000e+00
      -24  1    1    2    0    0 -2.7365143781e+02 -2.8281736584e+03 +4.7544551399e+03 5.5393743058e+03 7.9829010000e+01 0.0000e+00 1.0000e+00
       24  1    1    2    0    0 +9.7088878097e+02 +5.2140136163e+03 -8.4093739473e+03 9.9424597496e+03 7.9829010000e+01 0.0000e+00 1.0000e+00
       22  1    1    2    0    0 -6.7058051667e+02 -7.9171852481e+02 +1.1477492451e+03 1.5471990116e+03 0.0000000000e+00 0.0000e+00 -1.0000e+00
       22  1    1    2    0    0 -2.6656826489e+01 -1.5941214331e+03 +2.5071695623e+03 2.9711669331e+03 0.0000000000e+00 0.0000e+00 1.0000e+00
</event>
<event>
 6      1 +1.4834189e-01 1.15306000e+04 7.81653100e-03 6.85379500e-02
  1000022 -1    0    0    0    0 +0.0000000000e+00 +0.0000000000e+00 +4.4721471353e+01 1.0000100000e+04 1.0000000000e+04 0.0000e+00 -1.0000e+00
  1000022 -1    0    0    0    0 -0.0000000000e+00 -0.0000000000e+00 -4.4721471353e+01 1.0000100000e+04 1.0000000000e+04 0.0000e+00 -1.0000e+00
      -24  1    1    2    0    0 -1.6416001565e+03 +1.9022733197e+03 -9.8607824258e+02 2.7004106776e+03 7.9829010000e+01 0.0000e+00 -1.0000e+00
       24  1    1    2    0    0 +5.0938165074e+02 -5.2424366174e+03 +4.3840871879e+03 6.8534082394e+03 7.9829010000e+01 0.0000e+00 1.0000e+00
       22  1    1    2    0    0 -3.4874314814e+03 +3.6814280988e+03 -2.7510764148e+03 5.7691864786e+03 0.0000000000e+00 0.0000e+00 1.0000e+00
       22  1    1    2    0    0 +4.6196499872e+03 -3.4126480105e+02 -6.4693253050e+02 4.6771946044e+03 0.0000000000e+00 0.0000e+00 1.0000e+00
</event>
<event>
 6      1 +1.4834189e-01 1.00084700e+04 7.81653100e-03 6.93821400e-02
  1000022 -1    0    0    0    0 +0.0000000000e+00 +0.0000000000e+00 +4.4721471353e+01 1.0000100000e+04 1.0000000000e+04 0.0000e+00 1.0000e+00
  1000022 -1    0    0    0    0 -0.0000000000e+00 -0.0000000000e+00 -4.4721471353e+01 1.0000100000e+04 1.0000000000e+04 0.0000e+00 1.0000e+00
      -24  1    1    2    0    0 -1.4578577708e+03 +8.5675958016e+03 +2.1404757760e+03 8.9508131652e+03 7.9829010000e+01 0.0000e+00 1.0000e+00
       24  1    1    2    0    0 +1.6636276155e+03 -9.0701708175e+03 -2.3418183081e+03 9.5145226450e+03 7.9829010000e+01 0.0000e+00 1.0000e+00
       22  1    1    2    0    0 -1.8955965436e+02 +9.9461928467e+02 +2.4148068558e+02 1.0409194520e+03 0.0000000000e+00 0.0000e+00 -1.0000e+00
       22  1    1    2    0    0 -1.6210190379e+01 -4.9204426876e+02 -4.0138153489e+01 4.9394473785e+02 0.0000000000e+00 0.0000e+00 1.0000e+00
</event>
<event>
 6      1 +1.4834189e-01 1.01782000e+04 7.81653100e-03 6.92807700e-02
  1000022 -1    0    0    0    0 +0.0000000000e+00 +0.0000000000e+00 +4.4721471353e+01 1.0000100000e+04 1.0000000000e+04 0.0000e+00 1.0000e+00
  1000022 -1    0    0    0    0 -0.0000000000e+00 -0.0000000000e+00 -4.4721471353e+01 1.0000100000e+04 1.0000000000e+04 0.0000e+00 1.0000e+00
      -24  1    1    2    0    0 -8.1395956598e+03 -4.9509648111e+03 +2.1289790983e+03 9.7623764902e+03 7.9829010000e+01 0.0000e+00 1.0000e+00
       24  1    1    2    0    0 +8.3890524329e+03 +4.6703307017e+03 -2.0681313852e+03 9.8220023255e+03 7.9829010000e+01 0.0000e+00 1.0000e+00
       22  1    1    2    0    0 -1.7810327395e+01 -1.3502746417e+01 +2.3079880713e+01 3.2128068981e+01 0.0000000000e+00 0.0000e+00 -1.0000e+00
       22  1    1    2    0    0 -2.3164644570e+02 +2.9413685578e+02 -8.3927593771e+01 3.8369311530e+02 0.0000000000e+00 0.0000e+00 -1.0000e+00
</event>
<event>
 6      1 +1.4834189e-01 1.00044800e+04 7.81653100e-03 6.93845500e-02
  1000022 -1    0    0    0    0 +0.0000000000e+00 +0.0000000000e+00 +4.4721471353e+01 1.0000100000e+04 1.0000000000e+04 0.0000e+00 1.0000e+00
  1000022 -1    0    0    0    0 -0.0000000000e+00 -0.0000000000e+00 -4.4721471353e+01 1.0000100000e+04 1.0000000000e+04 0.0000e+00 1.0000e+00
      -24  1    1    2    0    0 -8.0415852328e+03 +5.4303683347e+03 +7.7355281668e+02 9.7345133385e+03 7.9829010000e+01 0.0000e+00 -1.0000e+00
       24  1    1    2    0    0 +5.3211708447e+03 -3.8598749200e+03 +3.7581913911e+01 6.5742892108e+03 7.9829010000e+01 0.0000e+00 -1.0000e+00
       22  1    1    2    0    0 -1.1848460884e+02 +2.1468215560e+02 -8.9998950169e+01 2.6120268279e+02 0.0000000000e+00 0.0000e+00 1.0000e+00
       22  1    1    2    0    0 +2.8388989970e+03 -1.7851755703e+03 -7.2113578042e+02 3.4301947679e+03 0.0000000000e+00 0.0000e+00 1.0000e+00
</event>
<event>
 6      1 +1.4834189e-01 1.00018300e+04 7.81653100e-03 6.93861500e-02
  1000022 -1    0    0    0    0 +0.0000000000e+00 +0.0000000000e+00 +4.4721471353e+01 1.0000100000e+04 1.0000000000e+04 0.0000e+00 1.0000e+00
  1000022 -1    0    0    0    0 -0.0000000000e+00 -0.0000000000e+00 -4.4721471353e+01 1.0000100000e+04 1.0000000000e+04 0.0000e+00 1.0000e+00
      -24  1    1    2    0    0 -4.6981752349e+03 +5.0805998081e+03 +6.7383204232e+03 9.6590206410e+03 7.9829010000e+01 0.0000e+00 1.0000e+00
       24  1    1    2    0    0 +4.8303858928e+03 -5.2423015626e+03 -6.9546810004e+03 9.9593330115e+03 7.9829010000e+01 0.0000e+00 1.0000e+00
       22  1    1    2    0    0 +2.8493514300e+01 -6.2077813830e+00 -3.0906960035e+01 4.2493023962e+01 0.0000000000e+00 0.0000e+00 1.0000e+00
       22  1    1    2    0    0 -1.6070417222e+02 +1.6790953588e+02 +2.4726753725e+02 3.3935332352e+02 0.0000000000e+00 0.0000e+00 1.0000e+00
</event>
<event>
 6      1 +1.4834189e-01 1.00064400e+04 7.81653100e-03 6.93833700e-02
  1000022 -1    0    0    0    0 +0.0000000000e+00 +0.0000000000e+00 +4.4721471353e+01 1.0000100000e+04 1.0000000000e+04 0.0000e+00 1.0000e+00
  1000022 -1    0    0    0    0 -0.0000000000e+00 -0.0000000000e+00 -4.4721471353e+01 1.0000100000e+04 1.0000000000e+04 0.0000e+00 1.0000e+00
      -24  1    1    2    0    0 +5.9265754682e+01 +5.6761620040e+03 -4.8804100698e+03 7.4864612899e+03 7.9829010000e+01 0.0000e+00 -1.0000e+00
       24  1    1    2    0    0 -4.6545211302e+02 -7.1569066532e+03 +6.7214261810e+03 9.8296439961e+03 7.9829010000e+01 0.0000e+00 -1.0000e+00
       22  1    1    2    0    0 +4.0594649608e+02 +1.6427395927e+03 -1.8673241684e+03 2.5199772771e+03 0.0000000000e+00 0.0000e+00 -1.0000e+00
       22  1    1    2    0    0 +2.3986226337e-01 -1.6199494343e+02 +2.6308057214e+01 1.6411743693e+02 0.0000000000e+00 0.0000e+00 1.0000e+00
</event>
<event>
 6      1 +1.4834189e-01 1.00453700e+04 7.81653100e-03 6.93599300e-02
  1000022 -1    0    0    0    0 +0.0000000000e+00 +0.0000000000e+00 +4.4721471353e+01 1.0000100000e+04 1.0000000000e+04 0.0000e+00 1.0000e+00
  1000022 -1    0    0    0    0 -0.0000000000e+00 -0.0000000000e+00 -4.4721471353e+01 1.0000100000e+04 1.0000000000e+04 0.0000e+00 1.0000e+00
      -24  1    1    2    0    0 +1.8308178997e+03 +1.5088463046e+03 +2.3891365808e+03 3.3679159172e+03 7.9829010000e+01 0.0000e+00 -1.0000e+00
       24  1    1    2    0    0 -3.9832068631e+03 -4.3209649995e+03 -6.2880126092e+03 8.6070988542e+03 7.9829010000e+01 0.0000e+00 -1.0000e+00
       22  1    1    2    0    0 +3.2209636604e+03 +3.5485141051e+03 +4.5189485243e+03 6.5869154405e+03 0.0000000000e+00 0.0000e+00 -1.0000e+00
       22  1    1    2    0    0 -1.0685746970e+03 -7.3639541018e+02 -6.2007249589e+02 1.4382697881e+03 0.0000000000e+00 0.0000e+00 -1.0000e+00
</event>
<event>
 6      1 +1.4834189e-01 1.00914900e+04 7.81653100e-03 6.93323100e-02
  1000022 -1    0    0    0    0 +0.0000000000e+00 +0.0000000000e+00 +4.4721471353e+01 1.0000100000e+04 1.0000000000e+04 0.0000e+00 -1.0000e+00
  1000022 -1    0    0    0    0 -0.0000000000e+00 -0.0000000000e+00 -4.4721471353e+01 1.0000100000e+04 1.0000000000e+04 0.0000e+00 -1.0000e+00
      -24  1    1    2    0    0 -6.4787714665e+02 +5.0104576901e+02 +1.4022077302e+02 8.3476116094e+02 7.9829010000e+01 0.0000e+00 1.0000e+00
       24  1    1    2    0    0 +1.2246181912e+03 -1.0970849090e+03 +3.2757942532e+02 1.6783819477e+03 7.9829010000e+01 0.0000e+00 -1.0000e+00
       22  1    1    2    0    0 -8.5315361818e+03 +2.9418993417e+03 +9.4589058559e+02 9.0739511988e+03 0.0000000000e+00 0.0000e+00 1.0000e+00
       22  1    1    2    0    0 +7.9547951372e+03 -2.3458602018e+03 -1.4136907839e+03 8.4131056925e+03 0.0000000000e+00 0.0000e+00 1.0000e+00
</event>
<event>
 6      1 +1.4834189e-01 1.00080400e+04 7.81653100e-03 6.93824000e-02
  1000022 -1    0    0    0    0 +0.0000000000e+00 +0.0000000000e+00 +4.4721471353e+01 1.0000100000e+04 1.0000000000e+04 0.0000e+00 1.0000e+00
  1000022 -1    0    0    0    0 -0.0000000000e+00 -0.0000000000e+00 -4.4721471353e+01 1.0000100000e+04 1.0000000000e+04 0.0000e+00 1.0000e+00
      -24  1    1    2    0    0 +6.4656862840e+03 +8.1752437703e+02 -7.5471861510e+03 9.9719525018e+03 7.9829010000e+01 0.0000e+00 -1.0000e+00
       24  1    1    2    0    0 -6.4682059782e+03 -8.2693053069e+02 +7.5706943700e+03 9.9921613575e+03 7.9829010000e+01 0.0000e+00 -1.0000e+00
       22  1    1    2    0    0 +1.3581281159e+01 +1.5641953448e+00 -1.3675097982e+01 1.9336654566e+01 0.0000000000e+00 0.0000e+00 -1.0000e+00
       22  1    1    2    0    0 -1.1061586870e+01 +7.8419583158e+00 -9.8331210166e+00 1.6749486059e+01 0.0000000000e+00 0.0000e+00 1.0000e+00
</event>
<event>
 6      1 +1.4834189e-01 1.00001600e+04 7.81653100e-03 6.93871600e-02
  1000022 -1    0    0    0    0 +0.0000000000e+00 +0.0000000000e+00 +4.4721471353e+01 1.0000100000e+04 1.0000000000e+04 0.0000e+00 1.0000e+00
  1000022 -1    0    0    0    0 -0.0000000000e+00 -0.0000000000e+00 -4.4721471353e+01 1.0000100000e+04 1.0000000000e+04 0.0000e+00 1.0000e+00
      -24  1    1    2    0    0 -2.6343728682e+03 -7.3493712441e+03 +6.1362411509e+03 9.9304081600e+03 7.9829010000e+01 0.0000e+00 1.0000e+00
       24  1    1    2    0    0 +2.4017025393e+03 +6.6608590685e+03 -5.5629756311e+03 9.0049036175e+03 7.9829010000e+01 0.0000e+00 1.0000e+00
       22  1    1    2    0    0 -1.8671875460e+01 -5.0686315983e+01 +4.3942862365e+01 6.9632727320e+01 0.0000000000e+00 0.0000e+00 1.0000e+00
       22  1    1    2    0    0 +2.5134220436e+02 +7.3919849159e+02 -6.1720838218e+02 9.9525549518e+02 0.0000000000e+00 0.0000e+00 1.0000e+00
</event>
<event>
 6      1 +1.4834189e-01 1.11403700e+04 7.81653100e-03 6.87413300e-02
  1000022 -1    0    0    0    0 +0.0000000000e+00 +0.0000000000e+00 +4.4721471353e+01 1.0000100000e+04 1.0000000000e+04 0.0000e+00 -1.0000e+00
  1000022 -1    0    0    0    0 -0.0000000000e+00 -0.0000000000e+00 -4.4721471353e+01 1.0000100000e+04 1.0000000000e+04 0.0000e+00 -1.0000e+00
      -24  1    1    2    0    0 +3.6895316317e+03 -6.3970891067e+03 -4.8943683599e+03 8.8598310940e+03 7.9829010000e+01 0.0000e+00 -1.0000e+00
       24  1    1    2    0    0 -1.6756776908e+03 +1.9933931517e+03 +2.0320183754e+03 3.3040858538e+03 7.9829010000e+01 0.0000e+00 -1.0000e+00
       22  1    1    2    0    0 -3.2092191507e+03 +1.6224407602e+03 +3.1695502628e+03 4.7934799933e+03 0.0000000000e+00 0.0000e+00 -1.0000e+00
       22  1    1    2    0    0 +1.1953652098e+03 +2.7812551949e+03 -3.0720027839e+02 3.0428030589e+03 0.0000000000e+00 0.0000e+00 -1.0000e+00
</event>
<event>
 6      1 +1.4834189e-01 1.00238100e+04 7.81653100e-03 6.93729000e-02
  1000022 -1    0    0    0    0 +0.0000000000e+00 +0.0000000000e+00 +4.4721471353e+01 1.0000100000e+04 1.0000000000e+04 0.0000e+00 1.0000e+00
  1000022 -1    0    0    0    0 -0.0000000000e+00 -0.0000000000e+00 -4.4721471353e+01 1.0000100000e+04 1.0000000000e+04 0.0000e+00 1.0000e+00
      -24  1    1    2    0    0 +8.5366693579e+03 +3.3121171135e+03 +6.0176327448e+02 9.1767823995e+03 7.9829010000e+01 0.0000e+00 1.0000e+00
       24  1    1    2    0    0 -9.3617324028e+03 -3.3981908941e+03 -5.7640989133e+02 9.9763899266e+03 7.9829010000e+01 0.0000e+00 1.0000e+00
       22  1    1    2    0    0 +5.9956346710e+01 -3.6598141754e+01 +1.1944450065e+01 7.1252069289e+01 0.0000000000e+00 0.0000e+00 -1.0000e+00
       22  1    1    2    0    0 +7.6510669823e+02 +1.2267192239e+02 -3.7297833214e+01 7.7577560452e+02 0.0000000000e+00 0.0000e+00 -1.0000e+00
</event>
<event>
 6      1 +1.4834189e-01 8.70537000e+03 7.81653100e-03 7.02348000e-02
  1000022 -1    0    0    0    0 +0.0000000000e+00 +0.0000000000e+00 +4.4721471353e+01 1.0000100000e+04 1.0000000000e+04 0.0000e+00 -1.0000e+00
  1000022 -1    0    0    0    0 -0.0000000000e+00 -0.0000000000e+00 -4.4721471353e+01 1.0000100000e+04 1.0000000000e+04 0.0000e+00 -1.0000e+00
      -24  1    1    2    0    0 +6.4372804032e+02 -8.5785297897e+02 +2.1707979247e+03 2.4226088880e+03 7.9829010000e+01 0.0000e+00 1.0000e+00
       24  1    1    2    0    0 +4.2636105735e+02 +6.5498791129e+03 -7.6550171966e+02 6.6087113493e+03 7.9829010000e+01 0.0000e+00 -1.0000e+00
       22  1    1    2    0    0 -1.2212192148e+03 -8.2374405176e+03 -1.1423671211e+03 8.4054628243e+03 0.0000000000e+00 0.0000e+00 -1.0000e+00
       22  1    1    2    0    0 +1.5113011708e+02 +2.5454143837e+03 -2.6292908400e+02 2.5634169384e+03 0.0000000000e+00 0.0000e+00 -1.0000e+00
</event>
<event>
 6      1 +1.4834189e-01 1.05051600e+04 7.81653100e-03 6.90909700e-02
  1000022 -1    0    0    0    0 +0.0000000000e+00 +0.0000000000e+00 +4.4721471353e+01 1.0000100000e+04 1.0000000000e+04 0.0000e+00 -1.0000e+00
  1000022 -1    0    0    0    0 -0.0000000000e+00 -0.0000000000e+00 -4.4721471353e+01 1.0000100000e+04 1.0000000000e+04 0.0000e+00 -1.0000e+00
      -24  1    1    2    0    0 +4.5577161093e+03 -7.6977425682e+03 -1.2156728035e+03 9.0284134716e+03 7.9829010000e+01 0.0000e+00 1.0000e+00
       24  1    1    2    0    0 -5.5213663736e+03 +7.4232151170e+03 +6.1819542448e+02 9.2724402160e+03 7.9829010000e+01 0.0000e+00 1.0000e+00
       22  1    1    2    0    0 +7.4484608939e+02 +6.6800411293e+02 +7.2011997062e+02 1.2327197426e+03 0.0000000000e+00 0.0000e+00 1.0000e+00
       22  1    1    2    0    0 +2.1880417494e+02 -3.9347666179e+02 -1.2264259159e+02 4.6662656977e+02 0.0000000000e+00 0.0000e+00 -1.0000e+00
</event>
<event>
 6      1 +1.4834189e-01 1.01482500e+04 7.81653100e-03 6.92985100e-02
  1000022 -1    0    0    0    0 +0.0000000000e+00 +0.0000000000e+00 +4.4721471353e+01 1.0000100000e+04 1.0000000000e+04 0.0000e+00 1.0000e+00
  1000022 -1    0    0    0    0 -0.0000000000e+00 -0.0000000000e+00 -4.4721471353e+01 1.0000100000e+04 1.0000000000e+04 0.0000e+00 1.0000e+00
      -24  1    1    2    0    0 -9.7106898641e+03 -1.6006434671e+03 +4.4148607612e+02 9.8519459891e+03 7.9829010000e+01 0.0000e+00 1.0000e+00
       24  1    1    2    0    0 +1.8663994583e+03 +3.3082624539e+02 -1.1050271858e+02 1.9003885035e+03 7.9829010000e+01 0.0000e+00 0.0000e+00
       22  1    1    2    0    0 +2.4478338806e+02 -3.1717870196e+02 +2.3384495927e+02 4.6390160705e+02 0.0000000000e+00 0.0000e+00 -1.0000e+00
       22  1    1    2    0    0 +7.5995070178e+03 +1.5869959237e+03 -5.6482831681e+02 7.7839639004e+03 0.0000000000e+00 0.0000e+00 1.0000e+00
</event>
<event>
 6      1 +1.4834189e-01 1.04230900e+04 7.81653100e-03 6.91379500e-02
  1000022 -1    0    0    0    0 +0.0000000000e+00 +0.0000000000e+00 +4.4721471353e+01 1.0000100000e+04 1.0000000000e+04 0.0000e+00 -1.0000e+00
  1000022 -1    0    0    0    0 -0.0000000000e+00 -0.0000000000e+00 -4.4721471353e+01 1.0000100000e+04 1.0000000000e+04 0.0000e+00 -1.0000e+00
      -24  1    1    2    0    0 +5.1755253240e+02 +8.8556230296e+03 +2.1760258619e+03 9.1340780098e+03 7.9829010000e+01 0.0000e+00 -1.0000e+00
       24  1    1    2    0    0 +6.3024117176e+02 -9.1537474709e+03 -1.9370969775e+03 9.3780069347e+03 7.9829010000e+01 0.0000e+00 -1.0000e+00
       22  1    1    2    0    0 -1.1714959712e+03 +4.9401809334e+02 -2.1234118458e+02 1.2890094901e+03 0.0000000000e+00 0.0000e+00 -1.0000e+00
       22  1    1    2    0    0 +2.3702267008e+01 -1.9589365203e+02 -2.6587699826e+01 1.9910556534e+02 0.0000000000e+00 0.0000e+00 -1.0000e+00
</event>
<event>
 6      1 +1.4834189e-01 1.00727900e+04 7.81653100e-03 6.93434900e-02
  1000022 -1    0    0    0    0 +0.0000000000e+00 +0.0000000000e+00 +4.4721471353e+01 1.0000100000e+04 1.0000000000e+04 0.0000e+00 1.0000e+00
  1000022 -1    0    0    0    0 -0.0000000000e+00 -0.0000000000e+00 -4.4721471353e+01 1.0000100000e+04 1.0000000000e+04 0.0000e+00 1.0000e+00
      -24  1    1    2    0    0 +4.2311351734e+03 -9.6298623218e+02 +8.5219117246e+03 9.5634303183e+03 7.9829010000e+01 0.0000e+00 -1.0000e+00
       24  1    1    2    0    0 -4.2420485262e+03 +9.0089098431e+02 -8.9297557578e+03 9.9274110839e+03 7.9829010000e+01 0.0000e+00 -1.0000e+00
       22  1    1    2    0    0 +8.7769450960e+00 +1.7970702192e+02 +1.8926841450e+02 2.6114015627e+02 0.0000000000e+00 0.0000e+00 -1.0000e+00
       22  1    1    2    0    0 +2.1364076764e+00 -1.1761177405e+02 +2.1857561869e+02 2.4821844153e+02 0.0000000000e+00 0.0000e+00 -1.0000e+00
</event>
<event>
 6      1 +1.4834189e-01 1.00941800e+04 7.81653100e-03 6.93307000e-02
  1000022 -1    0    0    0    0 +0.0000000000e+00 +0.0000000000e+00 +4.4721471353e+01 1.0000100000e+04 1.0000000000e+04 0.0000e+00 -1.0000e+00
  1000022 -1    0    0    0    0 -0.0000000000e+00 -0.0000000000e+00 -4.4721471353e+01 1.0000100000e+04 1.0000000000e+04 0.0000e+00 -1.0000e+00
      -24  1    1    2    0    0 +1.3508251337e+03 -1.4904959271e+02 -1.3446780351e+03 1.9134983700e+03 7.9829010000e+01 0.0000e+00 0.0000e+00
       24  1    1    2    0    0 -7.3409623777e+03 +3.5844472355e+02 +6.6411289088e+03 9.9060172170e+03 7.9829010000e+01 0.0000e+00 1.0000e+00
       22  1    1    2    0    0 +5.2879040577e+02 +3.4099663079e+02 -1.2960669605e+02 6.4241411185e+02 0.0000000000e+00 0.0000e+00 -1.0000e+00
       22  1    1    2    0    0 +5.4613468382e+03 -5.5039176163e+02 -5.1668441776e+03 7.5382703012e+03 0.0000000000e+00 0.0000e+00 1.0000e+00
</event>
<event>
 6      1 +1.4834189e-01 1.07910300e+04 7.81653100e-03 6.89306200e-02
  1000022 -1    0    0    0    0 +0.0000000000e+00 +0.0000000000e+00 +4.4721471353e+01 1.0000100000e+04 1.0000000000e+04 0.0000e+00 -1.0000e+00
  1000022 -1    0    0    0    0 -0.0000000000e+00 -0.0000000000e+00 -4.4721471353e+01 1.0000100000e+04 1.0000000000e+04 0.0000e+00 -1.0000e+00
      -24  1    1    2    0    0 -3.2510492354e+03 -8.3142759864e+03 -2.2596301169e+03 9.2091697370e+03 7.9829010000e+01 0.0000e+00 -1.0000e+00
       24  1    1    2    0    0 +3.5514278051e+03 +4.1377678910e+03 +3.3605558389e+03 6.4057373340e+03 7.9829010000e+01 0.0000e+00 -1.0000e+00
       22  1    1    2    0    0 -3.8221580235e+02 +4.0243038328e+03 -1.1550680995e+03 4.2041993974e+03 0.0000000000e+00 0.0000e+00 -1.0000e+00
       22  1    1    2    0    0 +8.1837232623e+01 +1.5220426257e+02 +5.4142377407e+01 1.8109353169e+02 0.0000000000e+00 0.0000e+00 1.0000e+00
</event>
<event>
 6      1 +1.4834189e-01 1.01962900e+04 7.81653100e-03 6.92700800e-02
  1000022 -1    0    0    0    0 +0.0000000000e+00 +0.0000000000e+00 +4.4721471353e+01 1.0000100000e+04 1.0000000000e+04 0.0000e+00 1.0000e+00
  1000022 -1    0    0    0    0 -0.0000000000e+00 -0.0000000000e+00 -4.4721471353e+01 1.0000100000e+04 1.0000000000e+04 0.0000e+00 1.0000e+00
      -24  1    1    2    0    0 +4.0822824349e+03 +3.4381609290e+03 +4.6205429401e+03 7.0598704084e+03 7.9829010000e+01 0.0000e+00 1.0000e+00
       24  1    1    2    0    0 -6.4422098169e+03 -5.1093573489e+03 -4.7683365492e+03 9.5053146166e+03 7.9829010000e+01 0.0000e+00 1.0000e+00
       22  1    1    2    0    0 -1.5752518298e+02 -1.6888976478e+02 -1.8927253644e+02 2.9860011549e+02 0.0000000000e+00 0.0000e+00 -1.0000e+00
       22  1    1    2    0    0 +2.5174525650e+03 +1.8400861847e+03 +3.3706614553e+02 3.1364148595e+03 0.0000000000e+00 0.0000e+00 1.0000e+00
</event>
<event>
 6      1 +1.4834189e-01 1.00597300e+04 7.81653100e-03 6.93513100e-02
  1000022 -1    0    0    0    0 +0.0000000000e+00 +0.0000000000e+00 +4.4721471353e+01 1.0000100000e+04 1.0000000000e+04 0.0000e+00 -1.0000e+00
  1000022 -1    0    0    0    0 -0.0000000000e+00 -0.0000000000e+00 -4.4721471353e+01 1.0000100000e+04 1.0000000000e+04 0.0000e+00 -1.0000e+00
      -24  1    1    2    0    0 -7.1803205602e+03 -5.6375587130e+03 -3.9328688305e+03 9.9404678713e+03 7.9829010000e+01 0.0000e+00 1.0000e+00
       24  1    1    2    0    0 +1.2286410407e+03 +6.8066998003e+02 +2.2361581946e+02 1.4245164563e+03 7.9829010000e+01 0.0000e+00 -1.0000e+00
       22  1    1    2    0    0 +2.4053184561e+02 +5.0990011250e+01 +8.8062155372e+00 2.4603475249e+02 0.0000000000e+00 0.0000e+00 -1.0000e+00
       22  1    1    2    0    0 +5.7111476739e+03 +4.9058987217e+03 +3.7004467955e+03 8.3891809200e+03 0.0000000000e+00 0.0000e+00 1.0000e+00
</event>
<event>
 6      1 +1.4834189e-01 1.00047700e+04 7.81653100e-03 6.93843700e-02
  1000022 -1    0    0    0    0 +0.0000000000e+00 +0.0000000000e+00 +4.4721471353e+01 1.0000100000e+04 1.0000000000e+04 0.0000e+00 -1.0000e+00
  1000022 -1    0    0    0    0 -0.0000000000e+00 -0.0000000000e+00 -4.4721471353e+01 1.0000100000e+04 1.0000000000e+04 0.0000e+00 -1.0000e+00
      -24  1    1    2    0    0 +8.2712934621e+03 -4.0088152790e+03 -5.7027665980e+02 9.2095865063e+03 7.9829010000e+01 0.0000e+00 1.0000e+00
       24  1    1    2    0    0 -3.1180132985e+03 +1.2963620814e+03 +1.6452007306e+02 3.3817157038e+03 7.9829010000e+01 0.0000e+00 1.0000e+00
       22  1    1    2    0    0 -5.8587196266e+03 +3.0564146671e+03 +4.4565848362e+02 6.6230565274e+03 0.0000000000e+00 0.0000e+00 1.0000e+00
       22  1    1    2    0    0 +7.0543946310e+02 -3.4396146948e+02 -3.9901896882e+01 7.8584126257e+02 0.0000000000e+00 0.0000e+00 -1.0000e+00
</event>
<event>
 6      1 +1.4834189e-01 1.00002300e+04 7.81653100e-03 6.93871100e-02
  1000022 -1    0    0    0    0 +0.0000000000e+00 +0.0000000000e+00 +4.4721471353e+01 1.0000100000e+04 1.0000000000e+04 0.0000e+00 -1.0000e+00
  1000022 -1    0    0    0    0 -0.0000000000e+00 -0.0000000000e+00 -4.4721471353e+01 1.0000100000e+04 1.0000000000e+04 0.0000e+00 -1.0000e+00
      -24  1    1    2    0    0 -5.3071918127e+03 +7.1964027101e+03 -1.1116804632e+03 9.0109213195e+03 7.9829010000e+01 0.0000e+00 1.0000e+00
       24  1    1    2    0    0 +5.8437948481e+03 -7.8827747569e+03 +1.1973541782e+03 9.8857526671e+03 7.9829010000e+01 0.0000e+00 1.0000e+00
       22  1    1    2    0    0 +6.3240542833e+01 -9.3731262619e+01 +1.6127025639e+01 1.1421469610e+02 0.0000000000e+00 0.0000e+00 -1.0000e+00
       22  1    1    2    0    0 -5.9984357827e+02 +7.8010330945e+02 -1.0180074062e+02 9.8931131733e+02 0.0000000000e+00 0.0000e+00 -1.0000e+00
</event>
<event>
 6      1 +1.4834189e-01 1.00008200e+04 7.81653100e-03 6.93867600e-02
  1000022 -1    0    0    0    0 +0.0000000000e+00 +0.0000000000e+00 +4.4721471353e+01 1.0000100000e+04 1.0000000000e+04 0.0000e+00 1.0000e+00
  1000022 -1    0    0    0    0 -0.0000000000e+00 -0.0000000000e+00 -4.4721471353e+01 1.0000100000e+04 1.0000000000e+04 0.0000e+00 1.0000e+00
      -24  1    1    2    0    0 +3.3154126686e+03 +2.5485145337e+03 +7.8023352838e+03 8.8526660415e+03 7.9829010000e+01 0.0000e+00 1.0000e+00
       24  1    1    2    0    0 -1.2517878862e+03 -8.8234443551e+02 -2.8214413115e+03 3.2112938763e+03 7.9829010000e+01 0.0000e+00 1.0000e+00
       22  1    1    2    0    0 -2.4849607475e+03 -2.0287587351e+03 -5.9838724298e+03 6.7895228977e+03 0.0000000000e+00 0.0000e+00 1.0000e+00
       22  1    1    2    0    0 +4.2133596510e+02 +3.6258863684e+02 +1.0029784575e+03 1.1467171846e+03 0.0000000000e+00 0.0000e+00 1.0000e+00
</event>
<event>
 6      1 +1.4834189e-01 1.00289500e+04 7.81653100e-03 6.93698000e-02
  1000022 -1    0    0    0    0 +0.0000000000e+00 +0.0000000000e+00 +4.4721471353e+01 1.0000100000e+04 1.0000000000e+04 0.0000e+00 1.0000e+00
  1000022 -1    0    0    0    0 -0.0000000000e+00 -0.0000000000e+00 -4.4721471353e+01 1.0000100000e+04 1.0000000000e+04 0.0000e+00 1.0000e+00
      -24  1    1    2    0    0 +1.3311050512e+02 -1.8338752433e+02 -2.4508901919e+02 3.4320648132e+02 7.9829010000e+01 0.0000e+00 -1.0000e+00
       24  1    1    2    0    0 +4.3266948861e+02 +8.1955443237e+03 +4.2289305790e+03 9.2327881033e+03 7.9829010000e+01 0.0000e+00 -1.0000e+00
       22  1    1    2    0    0 +1.8892644863e+02 +6.7488775261e+02 +2.3271452092e+02 7.3845970091e+02 0.0000000000e+00 0.0000e+00 1.0000e+00
       22  1    1    2    0    0 -7.5470644236e+02 -8.6870445520e+03 -4.2165560807e+03 9.6857457144e+03 0.0000000000e+00 0.0000e+00 -1.0000e+00
</event>
<event>
 6      1 +1.4834189e-01 1.09502100e+04 7.81653100e-03 6.88434900e-02
  1000022 -1    0    0    0    0 +0.0000000000e+00 +0.0000000000e+00 +4.4721471353e+01 1.0000100000e+04 1.0000000000e+04 0.0000e+00 1.0000e+00
  1000022 -1    0    0    0    0 -0.0000000000e+00 -0.0000000000e+00 -4.4721471353e+01 1.0000100000e+04 1.0000000000e+04 0.0000e+00 1.0000e+00
      -24  1    1    2    0    0 +1.7928257580e+03 +5.3054295351e+03 +7.1087362122e+03 9.0499895003e+03 7.9829010000e+01 0.0000e+00 -1.0000e+00
       24  1    1    2    0    0 -3.8738123950e+03 -3.5451383373e+03 -5.3663262669e+03 7.5085457032e+03 7.9829010000e+01 0.0000e+00 -1.0000e+00
       22  1    1    2    0    0 +2.2065753456e+03 -1.5703791572e+03 -1.4531587318e+03 3.0735542541e+03 0.0000000000e+00 0.0000e+00 -1.0000e+00
       22  1    1    2    0    0 -1.2558870858e+02 -1.8991204053e+02 -2.8925121356e+02 3.6811054237e+02 0.0000000000e+00 0.0000e+00 1.0000e+00
</event>
<event>
 6      1 +1.4834189e-01 1.00017600e+04 7.81653100e-03 6.93861900e-02
  1000022 -1    0    0    0    0 +0.0000000000e+00 +0.0000000000e+00 +4.4721471353e+01 1.0000100000e+04 1.0000000000e+04 0.0000e+00 1.0000e+00
  1000022 -1    0    0    0    0 -0.0000000000e+00 -0.0000000000e+00 -4.4721471353e+01 1.0000100000e+04 1.0000000000e+04 0.0000e+00 1.0000e+00
      -24  1    1    2    0    0 -8.7397334778e+03 -4.2012831862e+03 +9.5164750502e+02 9.7440098172e+03 7.9829010000e+01 0.0000e+00 1.0000e+00
       24  1    1    2    0    0 +8.9704896334e+03 +4.3060938689e+03 -9.7484235202e+02 9.9984408261e+03 7.9829010000e+01 0.0000e+00 1.0000e+00
       22  1    1    2    0    0 -2.1840688710e+02 -1.0842027659e+02 +2.1920041097e+01 2.4482036866e+02 0.0000000000e+00 0.0000e+00 -1.0000e+00
       22  1    1    2    0    0 -1.2349268563e+01 +3.6095938642e+00 +1.2748059005e+00 1.2928988050e+01 0.0000000000e+00 0.0000e+00 1.0000e+00
</event>
<event>
 6      1 +1.4834189e-01 1.01815400e+04 7.81653100e-03 6.92787900e-02
  1000022 -1    0    0    0    0 +0.0000000000e+00 +0.0000000000e+00 +4.4721471353e+01 1.0000100000e+04 1.0000000000e+04 0.0000e+00 -1.0000e+00
  1000022 -1    0    0    0    0 -0.0000000000e+00 -0.0000000000e+00 -4.4721471353e+01 1.0000100000e+04 1.0000000000e+04 0.0000e+00 -1.0000e+00
      -24  1    1    2    0    0 -4.9936946834e+03 +8.6153649396e+01 +8.3596434482e+02 5.0645452016e+03 7.9829010000e+01 0.0000e+00 1.0000e+00
       24  1    1    2    0    0 +9.5354726340e+03 -2.2403561553e+03 -1.1803303558e+01 9.7954553771e+03 7.9829010000e+01 0.0000e+00 1.0000e+00
       22  1    1    2    0    0 +1.9668051188e+01 -1.1633659227e+01 +4.0614262247e+00 2.3209253489e+01 0.0000000000e+00 0.0000e+00 1.0000e+00
       22  1    1    2    0    0 -4.5614460018e+03 +2.1658361652e+03 -8.2822246749e+02 5.1169901678e+03 0.0000000000e+00 0.0000e+00 1.0000e+00
</event>
<event>
 6      1 +1.4834189e-01 1.00086700e+04 7.81653100e-03 6.93820200e-02
  1000022 -1    0    0    0    0 +0.0000000000e+00 +0.0000000000e+00 +4.4721471353e+01 1.0000100000e+04 1.0000000000e+04 0.0000e+00 -1.0000e+00
  1000022 -1    0    0    0    0 -0.0000000000e+00 -0.0000000000e+00 -4.4721471353e+01 1.0000100000e+04 1.0000000000e+04 0.0000e+00 -1.0000e+00
      -24  1    1    2    0    0 +9.3957371275e+02 +8.5185187548e+03 -7.1789665963e+02 8.6005644479e+03 7.9829010000e+01 0.0000e+00 1.0000e+00
       24  1    1    2    0    0 -1.1233461770e+03 -9.7557526736e+03 +9.8099675060e+02 9.8694145802e+03 7.9829010000e+01 0.0000e+00 1.0000e+00
       22  1    1    2    0    0 +1.8954268018e+01 -1.2772734412e+02 -5.2133959180e+01 1.3925332460e+02 0.0000000000e+00 0.0000e+00 -1.0000e+00
       22  1    1    2    0    0 +1.6481819624e+02 +1.3649612628e+03 -2.1096613179e+02 1.3909676472e+03 0.0000000000e+00 0.0000e+00 1.0000e+00
</event>
<event>
 6      1 +1.4834189e-01 1.00150200e+04 7.81653100e-03 6.93781900e-02
  1000022 -1    0    0    0    0 +0.0000000000e+00 +0.0000000000e+00 +4.4721471353e+01 1.0000100000e+04 1.0000000000e+04 0.0000e+00 -1.0000e+00
  1000022 -1    0    0    0    0 -0.0000000000e+00 -0.0000000000e+00 -4.4721471353e+01 1.0000100000e+04 1.0000000000e+04 0.0000e+00 -1.0000e+00
      -24  1    1    2    0    0 -9.1796370869e+02 +7.7415770693e+03 -6.2388068536e+03 9.9851768396e+03 7.9829010000e+01 0.0000e+00 1.0000e+00
       24  1    1    2    0    0 +9.6153956709e+02 -7.4663770413e+03 +5.9763361531e+03 9.6121959483e+03 7.9829010000e+01 0.0000e+00 1.0000e+00
       22  1    1    2    0    0 -8.1735703767e+01 -2.2207055182e+02 +2.2920781223e+02 3.2944237196e+02 0.0000000000e+00 0.0000e+00 1.0000e+00
       22  1    1    2    0    0 +3.8159845361e+01 -5.3129476152e+01 +3.3262888285e+01 7.3384840200e+01 0.0000000000e+00 0.0000e+00 1.0000e+00
</event>
<event>
 6      1 +1.4834189e-01 1.05876800e+04 7.81653100e-03 6.90441600e-02
  1000022 -1    0    0    0    0 +0.0000000000e+00 +0.0000000000e+00 +4.4721471353e+01 1.0000100000e+04 1.0000000000e+04 0.0000e+00 1.0000e+00
  1000022 -1    0    0    0    0 -0.0000000000e+00 -0.0000000000e+00 -4.4721471353e+01 1.0000100000e+04 1.0000000000e+04 0.0000e+00 1.0000e+00
      -24  1    1    2    0    0 -6.4465495509e+03 -3.5398026061e+03 -9.8534170743e+02 7.4206114676e+03 7.9829010000e+01 0.0000e+00 1.0000e+00
       24  1    1    2    0    0 +8.5764817924e+03 +1.9170811973e+03 -6.4698727919e+02 8.8122758390e+03 7.9829010000e+01 0.0000e+00 1.0000e+00
       22  1    1    2    0    0 -3.7239467789e+02 +1.5905089014e+03 +6.9546317554e+02 1.7754056973e+03 0.0000000000e+00 0.0000e+00 1.0000e+00
       22  1    1    2    0    0 -1.7575375636e+03 +3.2212507403e+01 +9.3686581108e+02 1.9919069961e+03 0.0000000000e+00 0.0000e+00 1.0000e+00
</event>
<event>
 6      1 +1.4834189e-01 1.00162400e+04 7.81653100e-03 6.93774600e-02
  1000022 -1    0    0    0    0 +0.0000000000e+00 +0.0000000000e+00 +4.4721471353e+01 1.0000100000e+04 1.0000000000e+04 0.0000e+00 1.0000e+00
  1000022 -1    0    0    0    0 -0.0000000000e+00 -0.0000000000e+00 -4.4721471353e+01 1.0000100000e+04 1.0000000000e+04 0.0000e+00 1.0000e+00
      -24  1    1    2    0    0 -6.0350753857e+03 +7.6407070919e+03 -1.6263922699e+03 9.8718825085e+03 7.9829010000e+01 0.0000e+00 1.0000e+00
       24  1    1    2    0    0 +5.9464814150e+03 -7.5447944017e+03 +1.5496330973e+03 9.7309968241e+03 7.9829010000e+01 0.0000e+00 1.0000e+00
       22  1    1    2    0    0 -7.6589070199e+01 +9.5677296221e+01 +7.6275150821e+01 1.4435348738e+02 0.0000000000e+00 0.0000e+00 -1.0000e+00
       22  1    1    2    0    0 +1.6518304087e+02 -1.9158998644e+02 +4.8402182565e-01 2.5296718003e+02 0.0000000000e+00 0.0000e+00 -1.0000e+00
</event>
<event>
 6      1 +1.4834189e-01 1.00001800e+04 7.81653100e-03 6.93871500e-02
  1000022 -1    0    0    0    0 +0.0000000000e+00 +0.0000000000e+00 +4.4721471353e+01 1.0000100000e+04 1.0000000000e+04 0.0000e+00 1.0000e+00
  1000022 -1    0    0    0    0 -0.0000000000e+00 -0.0000000000e+00 -4.4721471353e+01 1.0000100000e+04 1.0000000000e+04 0.0000e+00 1.0000e+00
      -24  1    1    2    0    0 -4.1601307418e+03 -1.8256988345e+03 -2.3874249507e+02 4.5500807326e+03 7.9829010000e+01 0.0000e+00 0.0000e+00
       24  1    1    2    0    0 +8.3469668692e+03 +3.6240184637e+03 +5.0004141029e+02 9.1138235568e+03 7.9829010000e+01 0.0000e+00 1.0000e+00
       22  1    1    2    0    0 -4.9942537471e+03 -2.1561156615e+03 -3.3485648084e+02 5.4500948706e+03 0.0000000000e+00 0.0000e+00 1.0000e+00
       22  1    1    2    0    0 +8.0741761969e+02 +3.5779603236e+02 +7.3557565625e+01 8.8620084000e+02 0.0000000000e+00 0.0000e+00 1.0000e+00
</event>
<event>
 6      1 +1.4834189e-01 1.00228200e+04 7.81653100e-03 6.93735000e-02
  1000022 -1    0    0    0    0 +0.0000000000e+00 +0.0000000000e+00 +4.4721471353e+01 1.0000100000e+04 1.0000000000e+04 0.0000e+00 1.0000e+00
  1000022 -1    0    0    0    0 -0.0000000000e+00 -0.0000000000e+00 -4.4721471353e+01 1.0000100000e+04 1.0000000000e+04 0.0000e+00 1.0000e+00
      -24  1    1    2    0    0 -8.7068619597e+03 +3.5345643964e+03 -3.3524908722e+03 9.9773823409e+03 7.9829010000e+01 0.0000e+00 1.0000e+00
       24  1    1    2    0    0 +6.1445830058e+02 -2.0717883138e+02 +3.1987667686e+02 7.2744472680e+02 7.9829010000e+01 0.0000e+00 0.0000e+00
       22  1    1    2    0    0 +8.0661626138e+03 -3.3633651285e+03 +3.0335873626e+03 9.2508300485e+03 0.0000000000e+00 0.0000e+00 1.0000e+00
       22  1    1    2    0    0 +2.6241045357e+01 +3.5979563439e+01 -9.7316731131e-01 4.4542883846e+01 0.0000000000e+00 0.0000e+00 -1.0000e+00
</event>
<event>
 6      1 +1.4834189e-01 1.00219200e+04 7.81653100e-03 6.93740400e-02
  1000022 -1    0    0    0    0 +0.0000000000e+00 +0.0000000000e+00 +4.4721471353e+01 1.0000100000e+04 1.0000000000e+04 0.0000e+00 1.0000e+00
  1000022 -1    0    0    0    0 -0.0000000000e+00 -0.0000000000e+00 -4.4721471353e+01 1.0000100000e+04 1.0000000000e+04 0.0000e+00 1.0000e+00
      -24  1    1    2    0    0 +5.7823248341e+03 -3.0276685989e+03 -7.5251479717e+03 9.9617409271e+03 7.9829010000e+01 0.0000e+00 -1.0000e+00
       24  1    1    2    0    0 -5.7756685367e+03 +3.0817478039e+03 +7.5067198490e+03 9.9605588265e+03 7.9829010000e+01 0.0000e+00 -1.0000e+00
       22  1    1    2    0    0 +3.1780975238e+00 -5.9895374695e+01 +4.8804359268e+00 6.0177860286e+01 0.0000000000e+00 0.0000e+00 -1.0000e+00
       22  1    1    2    0    0 -9.8343949243e+00 +5.8161697376e+00 +1.3547686739e+01 1.7722386124e+01 0.0000000000e+00 0.0000e+00 1.0000e+00
</event>
<event>
 6      1 +1.4834189e-01 1.00167000e+04 7.81653100e-03 6.93771800e-02
  1000022 -1    0    0    0    0 +0.0000000000e+00 +0.0000000000e+00 +4.4721471353e+01 1.0000100000e+04 1.0000000000e+04 0.0000e+00 1.0000e+00
  1000022 -1    0    0    0    0 -0.0000000000e+00 -0.0000000000e+00 -4.4721471353e+01 1.0000100000e+04 1.0000000000e+04 0.0000e+00 1.0000e+00
      -24  1    1    2    0    0 -8.3109506024e+03 -1.0767771273e+03 -3.2861559577e+03 9.0020299125e+03 7.9829010000e+01 0.0000e+00 1.0000e+00
       24  1    1    2    0    0 +8.8114574296e+03 +9.5061199157e+02 +3.7071647699e+03 9.6070228736e+03 7.9829010000e+01 0.0000e+00 1.0000e+00
       22  1    1    2    0    0 +3.4362630751e+02 +6.6207011322e+01 +1.3881772267e+02 3.7647412619e+02 0.0000000000e+00 0.0000e+00 1.0000e+00
       22  1    1    2    0    0 -8.4413313472e+02 +5.9958124412e+01 -5.5982653484e+02 1.0146730877e+03 0.0000000000e+00 0.0000e+00 1.0000e+00
</event>
<event>
 6      1 +1.4834189e-01 1.00939200e+04 7.81653100e-03 6.93308500e-02
  1000022 -1    0    0    0    0 +0.0000000000e+00 +0.0000000000e+00 +4.4721471353e+01 1.0000100000e+04 1.0000000000e+04 0.0000e+00 1.0000e+00
  1000022 -1    0    0    0    0 -0.0000000000e+00 -0.0000000000e+00 -4.4721471353e+01 1.0000100000e+04 1.0000000000e+04 0.0000e+00 1.0000e+00
      -24  1    1    2    0    0 +1.0475032753e+03 -2.0228542774e+03 +9.1606583775e+03 9.4399807796e+03 7.9829010000e+01 0.0000e+00 1.0000e+00
       24  1    1    2    0    0 -4.8002717628e+02 +1.7536642373e+03 -8.7686403365e+03 8.9555117312e+03 7.9829010000e+01 0.0000e+00 1.0000e+00
       22  1    1    2    0    0 +8.7490013142e+01 -2.0215648505e+02 +4.1099121291e+02 4.6629982194e+02 0.0000000000e+00 0.0000e+00 1.0000e+00
       22  1    1    2    0    0 -6.5496611215e+02 +4.7134652509e+02 -8.0300925396e+02 1.1384076672e+03 0.0000000000e+00 0.0000e+00 -1.0000e+00
</event>
<event>
 6      1 +1.4834189e-01 1.00002200e+04 7.81653100e-03 6.93871200e-02
  1000022 -1    0    0    0    0 +0.0000000000e+00 +0.0000000000e+00 +4.4721471353e+01 1.0000100000e+04 1.0000000000e+04 0.0000e+00 -1.0000e+00
  1000022 -1    0    0    0    0 -0.0000000000e+00 -0.0000000000e+00 -4.4721471353e+01 1.0000100000e+04 1.0000000000e+04 0.0000e+00 -1.0000e+00
      -24  1    1    2    0    0 +9.5775232487e+03 +1.3485130463e+03 -2.4649414080e+03 9.9814702240e+03 7.9829010000e+01 0.0000e+00 1.0000e+00
       24  1    1    2    0    0 -5.7355104126e+03 -8.3273024183e+02 +1.4695193665e+03 5.9795801849e+03 7.9829010000e+01 0.0000e+00 1.0000e+00
       22  1    1    2    0    0 +1.8694182117e+01 -7.8939326162e-01 -1.2342930862e+00 1.8751508371e+01 0.0000000000e+00 0.0000e+00 1.0000e+00
       22  1    1    2    0    0 -3.8607070182e+03 -5.1499341123e+02 +9.9665633458e+02 4.0203980827e+03 0.0000000000e+00 0.0000e+00 1.0000e+00
</event>
<event>
 6      1 +1.4834189e-01 1.00324600e+04 7.81653100e-03 6.93676900e-02
  1000022 -1    0    0    0    0 +0.0000000000e+00 +0.0000000000e+00 +4.4721471353e+01 1.0000100000e+04 1.0000000000e+04 0.0000e+00 1.0000e+00
  1000022 -1    0    0    0    0 -0.0000000000e+00 -0.0000000000e+00 -4.4721471353e+01 1.0000100000e+04 1.0000000000e+04 0.0000e+00 1.0000e+00
      -24  1    1    2    0    0 +9.2669171564e+03 -1.6695902053e+03 +2.3837314994e+03 9.7134871992e+03 7.9829010000e+01 0.0000e+00 1.0000e+00
       24  1    1    2    0    0 -9.3834963015e+03 +1.6461817655e+03 -2.5619399067e+03 9.8655879704e+03 7.9829010000e+01 0.0000e+00 1.0000e+00
       22  1    1    2    0    0 +2.4186783539e+02 -1.8346872516e+01 +7.6193184307e+01 2.5424802627e+02 0.0000000000e+00 0.0000e+00 -1.0000e+00
       22  1    1    2    0    0 -1.2528869030e+02 +4.1755312329e+01 +1.0201522302e+02 1.6687680412e+02 0.0000000000e+00 0.0000e+00 -1.0000e+00
</event>
<event>
 6      1 +1.4834189e-01 1.00304800e+04 7.81653100e-03 6.93688800e-02
  1000022 -1    0    0    0    0 +0.0000000000e+00 +0.0000000000e+00 +4.4721471353e+01 1.0000100000e+04 1.0000000000e+04 0.0000e+00 -1.0000e+00
  1000022 -1    0    0    0    0 -0.0000000000e+00 -0.0000000000e+00 -4.4721471353e+01 1.0000100000e+04 1.0000000000e+04 0.0000e+00 -1.0000e+00
      -24  1    1    2    0    0 -7.8783700370e+03 +5.3142407210e+03 +8.4768097911e+02 9.5412160962e+03 7.9829010000e+01 0.0000e+00 1.0000e+00
       24  1    1    2    0    0 +7.6719618554e+03 -5.0973309622e+03 -6.0987407473e+02 9.2314733768e+03 7.9829010000e+01 0.0000e+00 1.0000e+00
       22  1    1    2    0    0 +6.3028451183e+02 -3.8026482735e+02 -5.6077915946e+01 7.3824429387e+02 0.0000000000e+00 0.0000e+00 -1.0000e+00
       22  1    1    2    0    0 -4.2387633016e+02 +1.6335506854e+02 -1.8172898843e+02 4.8926623317e+02 0.0000000000e+00 0.0000e+00 1.0000e+00
</event>
<event>
 6      1 +1.4834189e-01 1.00047100e+04 7.81653100e-03 6.93844100e-02
  1000022 -1    0    0    0    0 +0.0000000000e+00 +0.0000000000e+00 +4.4721471353e+01 1.0000100000e+04 1.0000000000e+04 0.0000e+00 -1.0000e+00
  1000022 -1    0    0    0    0 -0.0000000000e+00 -0.0000000000e+00 -4.4721471353e+01 1.0000100000e+04 1.0000000000e+04 0.0000e+00 -1.0000e+00
      -24  1    1    2    0    0 +2.7449557812e+02 -2.8338027956e+02 -1.4746797273e+02 4.2868599122e+02 7.9829010000e+01 0.0000e+00 0.0000e+00
       24  1    1    2    0    0 -6.4656589006e+03 +7.1434015642e+03 +2.5816864940e+03 9.9751896599e+03 7.9829010000e+01 0.0000e+00 -1.0000e+00
       22  1    1    2    0    0 -1.1369489443e+01 +1.5120518157e+01 +7.3566493961e+00 2.0298168633e+01 0.0000000000e+00 0.0000e+00 1.0000e+00
       22  1    1    2    0    0 +6.2025328119e+03 -6.8751418028e+03 -2.4415751707e+03 9.5760261803e+03 0.0000000000e+00 0.0000e+00 -1.0000e+00
</event>
<event>
 6      1 +1.4834189e-01 1.00001400e+04 7.81653100e-03 6.93871700e-02
  1000022 -1    0    0    0    0 +0.0000000000e+00 +0.0000000000e+00 +4.4721471353e+01 1.0000100000e+04 1.0000000000e+04 0.0000e+00 -1.0000e+00
  1000022 -1    0    0    0    0 -0.0000000000e+00 -0.0000000000e+00 -4.4721471353e+01 1.0000100000e+04 1.0000000000e+04 0.0000e+00 -1.0000e+00
      -24  1    1    2    0    0 +4.2576354865e+03 -8.2510810766e+03 -3.1884055932e+03 9.8173367960e+03 7.9829010000e+01 0.0000e+00 1.0000e+00
       24  1    1    2    0    0 -4.3070878802e+03 +8.3562529328e+03 +3.2235089353e+03 9.9385789533e+03 7.9829010000e+01 0.0000e+00 1.0000e+00
       22  1    1    2    0    0 -3.0581755211e+01 +4.9758446145e+01 +1.9466775553e+01 6.1563804828e+01 0.0000000000e+00 0.0000e+00 1.0000e+00
       22  1    1    2    0    0 +8.0034148971e+01 -1.5493030233e+02 -5.4570117571e+01 1.8272044580e+02 0.0000000000e+00 0.0000e+00 -1.0000e+00
</event>
<event>
 6      1 +1.4834189e-01 1.00090200e+04 7.81653100e-03 6.93818100e-02
  1000022 -1    0    0    0    0 +0.0000000000e+00 +0.0000000000e+00 +4.4721471353e+01 1.0000100000e+04 1.0000000000e+04 0.0000e+00 -1.0000e+00
  1000022 -1    0    0    0    0 -0.0000000000e+00 -0.0000000000e+00 -4.4721471353e+01 1.0000100000e+04 1.0000000000e+04 0.0000e+00 -1.0000e+00
      -24  1    1    2    0    0 +1.5777045676e+03 +9.4517635665e+03 -2.6659449738e+03 9.9467895069e+03 7.9829010000e+01 0.0000e+00 -1.0000e+00
       24  1    1    2    0    0 -1.4198470545e+03 -8.5544077211e+03 +2.4280264968e+03 9.0053063500e+03 7.9829010000e+01 0.0000e+00 -1.0000e+00
       22  1    1    2    0    0 -1.2693750500e+02 -9.5055835098e+02 +2.2861634814e+02 9.8587004389e+02 0.0000000000e+00 0.0000e+00 -1.0000e+00
       22  1    1    2    0    0 -3.0920008082e+01 +5.3202505633e+01 +9.3021289362e+00 6.2234099240e+01 0.0000000000e+00 0.0000e+00 -1.0000e+00
</event>
<event>
 6      1 +1.4834189e-01 1.00001100e+04 7.81653100e-03 6.93871900e-02
  1000022 -1    0    0    0    0 +0.0000000000e+00 +0.0000000000e+00 +4.4721471353e+01 1.0000100000e+04 1.0000000000e+04 0.0000e+00 -1.0000e+00
  1000022 -1    0    0    0    0 -0.0000000000e+00 -0.0000000000e+00 -4.4721471353e+01 1.0000100000e+04 1.0000000000e+04 0.0000e+00 -1.0000e+00
      -24  1    1    2    0    0 -3.4088775391e+03 +1.0448396832e+03 -5.9255686389e+03 6.9159867268e+03 7.9829010000e+01 0.0000e+00 1.0000e+00
       24  1    1    2    0    0 +4.9762265719e+03 -1.4900791441e+03 +8.4135017195e+03 9.8882025973e+03 7.9829010000e+01 0.0000e+00 1.0000e+00
       22  1    1    2    0    0 +5.4083294535e+01 -3.6346838010e+01 +9.0972819670e+01 1.1190240971e+02 0.0000000000e+00 0.0000e+00 -1.0000e+00
       22  1    1    2    0    0 -1.6214323273e+03 +4.8158629895e+02 -2.5789059003e+03 3.0841082662e+03 0.0000000000e+00 0.0000e+00 1.0000e+00
</event>
<event>
 6      1 +1.4834189e-01 1.00006900e+04 7.81653100e-03 6.93868400e-02
  1000022 -1    0    0    0    0 +0.0000000000e+00 +0.0000000000e+00 +4.4721471353e+01 1.0000100000e+04 1.0000000000e+04 0.0000e+00 1.0000e+00
  1000022 -1    0    0    0    0 -0.0000000000e+00 -0.0000000000e+00 -4.4721471353e+01 1.0000100000e+04 1.0000000000e+04 0.0000e+00 1.0000e+00
      -24  1    1    2    0    0 -2.3168800763e+02 -2.1437880568e+03 -9.3232757474e+01 2.1597619274e+03 7.9829010000e+01 0.0000e+00 -1.0000e+00
       24  1    1    2    0    0 +1.3976778716e+02 +2.7224765306e+03 +1.7350325558e+02 2.7327439588e+03 7.9829010000e+01 0.0000e+00 -1.0000e+00
       22  1    1    2    0    0 +4.4502875919e+02 +7.2527317555e+03 +7.5671962020e+01 7.2667664583e+03 0.0000000000e+00 0.0000e+00 -1.0000e+00
       22  1    1    2    0    0 -3.5310853872e+02 -7.8314202293e+03 -1.5594246012e+02 7.8409276555e+03 0.0000000000e+00 0.0000e+00 -1.0000e+00
</event>
<event>
 6      1 +1.4834189e-01 1.01030200e+04 7.81653100e-03 6.93254200e-02
  1000022 -1    0    0    0    0 +0.0000000000e+00 +0.0000000000e+00 +4.4721471353e+01 1.0000100000e+04 1.0000000000e+04 0.0000e+00 -1.0000e+00
  1000022 -1    0    0    0    0 -0.0000000000e+00 -0.0000000000e+00 -4.4721471353e+01 1.0000100000e+04 1.0000000000e+04 0.0000e+00 -1.0000e+00
      -24  1    1    2    0    0 +9.0945557604e+02 +2.6660848097e+03 +3.0936980436e+03 4.1847888732e+03 7.9829010000e+01 0.0000e+00 1.0000e+00
       24  1    1    2    0    0 -3.3736990579e+02 -4.2115972323e+03 -6.9600885691e+03 8.1425165189e+03 7.9829010000e+01 0.0000e+00 1.0000e+00
       22  1    1    2    0    0 -4.7041142747e+02 +2.4486639833e+03 +5.3673300193e+03 5.9182323164e+03 0.0000000000e+00 0.0000e+00 1.0000e+00
       22  1    1    2    0    0 -1.0167424278e+02 -9.0315156077e+02 -1.5009394938e+03 1.7546622916e+03 0.0000000000e+00 0.0000e+00 1.0000e+00
</event>
<event>
 6      1 +1.4834189e-01 6.20166600e+03 7.81653100e-03 7.23991300e-02
  1000022 -1    0    0    0    0 +0.0000000000e+00 +0.0000000000e+00 +4.4721471353e+01 1.0000100000e+04 1.0000000000e+04 0.0000e+00 -1.0000e+00
  1000022 -1    0    0    0    0 -0.0000000000e+00 -0.0000000000e+00 -4.4721471353e+01 1.0000100000e+04 1.0000000000e+04 0.0000e+00 -1.0000e+00
      -24  1    1    2    0    0 +5.8297613314e+02 +8.1361324307e+03 +2.5507826702e+03 8.5468928274e+03 7.9829010000e+01 0.0000e+00 1.0000e+00
       24  1    1    2    0    0 +3.0293300954e+03 -4.3457793947e+03 -3.1445785218e+03 6.1609565917e+03 7.9829010000e+01 0.0000e+00 1.0000e+00
       22  1    1    2    0    0 +9.2499522648e+00 +5.5483883241e+00 -5.0322374994e+00 1.1902505793e+01 0.0000000000e+00 0.0000e+00 -1.0000e+00
       22  1    1    2    0    0 -3.6215561808e+03 -3.7959014243e+03 +5.9882808906e+02 5.2804480751e+03 0.0000000000e+00 0.0000e+00 1.0000e+00
</event>
<event>
 6      1 +1.4834189e-01 1.00291400e+04 7.81653100e-03 6.93696900e-02
  1000022 -1    0    0    0    0 +0.0000000000e+00 +0.0000000000e+00 +4.4721471353e+01 1.0000100000e+04 1.0000000000e+04 0.0000e+00 -1.0000e+00
  1000022 -1    0    0    0    0 -0.0000000000e+00 -0.0000000000e+00 -4.4721471353e+01 1.0000100000e+04 1.0000000000e+04 0.0000e+00 -1.0000e+00
      -24  1    1    2    0    0 -1.0062283448e+02 -7.4323546015e+01 -3.6148633489e+01 1.5273617401e+02 7.9829010000e+01 0.0000e+00 1.0000e+00
       24  1    1    2    0    0 +9.4378085869e+03 -1.4856015775e+03 +2.8170545092e+03 9.9609945161e+03 7.9829010000e+01 0.0000e+00 1.0000e+00
       22  1    1    2    0    0 -9.3468970550e+03 +1.5624424061e+03 -2.7816751111e+03 9.8764076087e+03 0.0000000000e+00 0.0000e+00 1.0000e+00
       22  1    1    2    0    0 +9.7113025449e+00 -2.5172825312e+00 +7.6923538784e-01 1.0061701225e+01 0.0000000000e+00 0.0000e+00 1.0000e+00
</event>
<event>
 6      1 +1.4834189e-01 1.00217100e+04 7.81653100e-03 6.93741600e-02
  1000022 -1    0    0    0    0 +0.0000000000e+00 +0.0000000000e+00 +4.4721471353e+01 1.0000100000e+04 1.0000000000e+04 0.0000e+00 1.0000e+00
  1000022 -1    0    0    0    0 -0.0000000000e+00 -0.0000000000e+00 -4.4721471353e+01 1.0000100000e+04 1.0000000000e+04 0.0000e+00 1.0000e+00
      -24  1    1    2    0    0 +4.8791485835e+03 +6.0917319697e+03 +2.3219944354e+03 8.1432990931e+03 7.9829010000e+01 0.0000e+00 1.0000e+00
       24  1    1    2    0    0 -6.3302743836e+03 -6.6167513741e+03 -1.3383366657e+03 9.2547982269e+03 7.9829010000e+01 0.0000e+00 1.0000e+00
       22  1    1    2    0    0 +1.7056031947e+03 +7.1314937060e+02 -3.3283331933e+02 1.8784148373e+03 0.0000000000e+00 0.0000e+00 1.0000e+00
       22  1    1    2    0    0 -2.5447739459e+02 -1.8812996613e+02 -6.5082445034e+02 7.2368784270e+02 0.0000000000e+00 0.0000e+00 1.0000e+00
</event>
<event>
 6      1 +1.4834189e-01 1.00172500e+04 7.81653100e-03 6.93768500e-02
  1000022 -1    0    0    0    0 +0.0000000000e+00 +0.0000000000e+00 +4.4721471353e+01 1.0000100000e+04 1.0000000000e+04 0.0000e+00 -1.0000e+00
  1000022 -1    0    0    0    0 -0.0000000000e+00 -0.0000000000e+00 -4.4721471353e+01 1.0000100000e+04 1.0000000000e+04 0.0000e+00 -1.0000e+00
      -24  1    1    2    0    0 -7.4510088078e+03 +1.1308450647e+02 -6.6424770462e+03 9.9829451736e+03 7.9829010000e+01 0.0000e+00 -1.0000e+00
       24  1    1    2    0    0 +6.4212591705e+03 -2.5997237748e+02 +5.5571801131e+03 8.4963979692e+03 7.9829010000e+01 0.0000e+00 -1.0000e+00
       22  1    1    2    0    0 +9.2115578603e+02 +2.0230060978e+02 +9.7409349644e+02 1.3558435229e+03 0.0000000000e+00 0.0000e+00 -1.0000e+00
       22  1    1    2    0    0 +1.0859385130e+02 -5.5412738775e+01 +1.1120343663e+02 1.6501333424e+02 0.0000000000e+00 0.0000e+00 -1.0000e+00
</event>
<event>
 6      1 +1.4834189e-01 1.00125100e+04 7.81653100e-03 6.93797100e-02
  1000022 -1    0    0    0    0 +0.0000000000e+00 +0.0000000000e+00 +4.4721471353e+01 1.0000100000e+04 1.0000000000e+04 0.0000e+00 -1.0000e+00
  1000022 -1    0    0    0    0 -0.0000000000e+00 -0.0000000000e+00 -4.4721471353e+01 1.0000100000e+04 1.0000000000e+04 0.0000e+00 -1.0000e+00
      -24  1    1    2    0    0 +2.0643151339e+03 +4.8284918683e+03 -8.3318141452e+03 9.8489202614e+03 7.9829010000e+01 0.0000e+00 1.0000e+00
       24  1    1    2    0    0 -2.0846001686e+03 -4.8703475784e+03 +8.4665092334e+03 9.9876921592e+03 7.9829010000e+01 0.0000e+00 1.0000e+00
       22  1    1    2    0    0 +4.5436072567e+01 +3.9771028902e+01 -1.2012167869e+02 1.3444474375e+02 0.0000000000e+00 0.0000e+00 1.0000e+00
       22  1    1    2    0    0 -2.5151037881e+01 +2.0846811961e+00 -1.4573409558e+01 2.9142835626e+01 0.0000000000e+00 0.0000e+00 1.0000e+00
</event>
<event>
 6      1 +1.4834189e-01 1.00007900e+04 7.81653100e-03 6.93867800e-02
  1000022 -1    0    0    0    0 +0.0000000000e+00 +0.0000000000e+00 +4.4721471353e+01 1.0000100000e+04 1.0000000000e+04 0.0000e+00 1.0000e+00
  1000022 -1    0    0    0    0 -0.0000000000e+00 -0.0000000000e+00 -4.4721471353e+01 1.0000100000e+04 1.0000000000e+04 0.0000e+00 1.0000e+00
      -24  1    1    2    0    0 -8.8880364616e+03 -3.4167502545e+03 -2.6889506923e+03 9.8948573987e+03 7.9829010000e+01 0.0000e+00 1.0000e+00
       24  1    1    2    0    0 +8.8820633178e+03 +3.4230022288e+03 +2.6975303758e+03 9.8939898848e+03 7.9829010000e+01 0.0000e+00 1.0000e+00
       22  1    1    2    0    0 -8.6480184245e+01 -2.9978376412e+01 -5.3331794867e+01 1.0593302442e+02 0.0000000000e+00 0.0000e+00 -1.0000e+00
       22  1    1    2    0    0 +9.2453327982e+01 +2.3726402128e+01 +4.4752111374e+01 1.0541969211e+02 0.0000000000e+00 0.0000e+00 1.0000e+00
</event>
<event>
 6      1 +1.4834189e-01 1.00303400e+04 7.81653100e-03 6.93689700e-02
  1000022 -1    0    0    0    0 +0.0000000000e+00 +0.0000000000e+00 +4.4721471353e+01 1.0000100000e+04 1.0000000000e+04 0.0000e+00 1.0000e+00
  1000022 -1    0    0    0    0 -0.0000000000e+00 -0.0000000000e+00 -4.4721471353e+01 1.0000100000e+04 1.0000000000e+04 0.0000e+00 1.0000e+00
      -24  1    1    2    0    0 -2.3055956687e+03 -4.7758969165e+03 -6.6398674857e+03 8.4981866091e+03 7.9829010000e+01 0.0000e+00 -1.0000e+00
       24  1    1    2    0    0 +3.0600788550e+03 +5.7187037182e+03 +7.5236341498e+03 9.9337353653e+03 7.9829010000e+01 0.0000e+00 -1.0000e+00
       22  1    1    2    0    0 -7.7467208407e+02 -9.6133752361e+02 -9.0730582473e+02 1.5321522548e+03 0.0000000000e+00 0.0000e+00 -1.0000e+00
       22  1    1    2    0    0 +2.0188897679e+01 +1.8530721848e+01 +2.3539160625e+01 3.6125770921e+01 0.0000000000e+00 0.0000e+00 1.0000e+00
</event>
<event>
 6      1 +1.4834189e-01 1.00054400e+04 7.81653100e-03 6.93839700e-02
  1000022 -1    0    0    0    0 +0.0000000000e+00 +0.0000000000e+00 +4.4721471353e+01 1.0000100000e+04 1.0000000000e+04 0.0000e+00 -1.0000e+00
  1000022 -1    0    0    0    0 -0.0000000000e+00 -0.0000000000e+00 -4.4721471353e+01 1.0000100000e+04 1.0000000000e+04 0.0000e+00 -1.0000e+00
      -24  1    1    2    0    0 -4.2376515494e+03 +2.2801394847e+03 +8.7596891200e+03 9.9947612714e+03 7.9829010000e+01 0.0000e+00 1.0000e+00
       24  1    1    2    0    0 +3.7510267050e+03 -2.0188524961e+03 -7.7547691707e+03 8.8480949534e+03 7.9829010000e+01 0.0000e+00 1.0000e+00
       22  1    1    2    0    0 +6.5481699029e+01 +1.9025031130e+01 -1.1932208597e+02 1.3743203745e+02 0.0000000000e+00 0.0000e+00 1.0000e+00
       22  1    1    2    0    0 +4.2114314542e+02 -2.8031201969e+02 -8.8559786332e+02 1.0199117378e+03 0.0000000000e+00 0.0000e+00 1.0000e+00
</event>
<event>
 6      1 +1.4834189e-01 1.00183700e+04 7.81653100e-03 6.93761800e-02
  1000022 -1    0    0    0    0 +0.0000000000e+00 +0.0000000000e+00 +4.4721471353e+01 1.0000100000e+04 1.0000000000e+04 0.0000e+00 -1.0000e+00
  1000022 -1    0    0    0    0 -0.0000000000e+00 -0.0000000000e+00 -4.4721471353e+01 1.0000100000e+04 1.0000000000e+04 0.0000e+00 -1.0000e+00
      -24  1    1    2    0    0 -1.9121635356e+03 +1.3431156238e+03 +1.7597523294e+02 2.3447108391e+03 7.9829010000e+01 0.0000e+00 0.0000e+00
       24  1    1    2    0    0 +1.2524039691e+03 -5.1393870764e+02 -1.6367868815e+02 1.3659473199e+03 7.9829010000e+01 0.0000e+00 1.0000e+00
       22  1    1    2    0    0 -6.2287720708e+03 +4.3263461875e+03 +9.0042902851e+02 7.6371228403e+03 0.0000000000e+00 0.0000e+00 1.0000e+00
       22  1    1    2    0    0 +6.8885316373e+03 -5.1555231036e+03 -9.1272557329e+02 8.6524190006e+03 0.0000000000e+00 0.0000e+00 1.0000e+00
</event>
<event>
 6      1 +1.4834189e-01 1.00197800e+04 7.81653100e-03 6.93753200e-02
  1000022 -1    0    0    0    0 +0.0000000000e+00 +0.0000000000e+00 +4.4721471353e+01 1.0000100000e+04 1.0000000000e+04 0.0000e+00 1.0000e+00
  1000022 -1    0    0    0    0 -0.0000000000e+00 -0.0000000000e+00 -4.4721471353e+01 1.0000100000e+04 1.0000000000e+04 0.0000e+00 1.0000e+00
      -24  1    1    2    0    0 +3.0744445736e+03 +7.0648543648e+03 +5.2666345140e+03 9.3331767586e+03 7.9829010000e+01 0.0000e+00 1.0000e+00
       24  1    1    2    0    0 -3.7491635563e+03 -7.3409171026e+03 -5.0378637512e+03 9.6608351153e+03 7.9829010000e+01 0.0000e+00 1.0000e+00
       22  1    1    2    0    0 +2.2600101054e+02 -1.8974346296e+02 -2.0436520053e+02 3.5894870621e+02 0.0000000000e+00 0.0000e+00 1.0000e+00
       22  1    1    2    0    0 +4.4871797214e+02 +4.6580620075e+02 -2.4405562313e+01 6.4723941989e+02 0.0000000000e+00 0.0000e+00 1.0000e+00
</event>
<event>
 6      1 +1.4834189e-01 1.00002800e+04 7.81653100e-03 6.93870900e-02
  1000022 -1    0    0    0    0 +0.0000000000e+00 +0.0000000000e+00 +4.4721471353e+01 1.0000100000e+04 1.0000000000e+04 0.0000e+00 1.0000e+00
  1000022 -1    0    0    0    0 -0.0000000000e+00 -0.0000000000e+00 -4.4721471353e+01 1.0000100000e+04 1.0000000000e+04 0.0000e+00 1.0000e+00
      -24  1    1    2    0    0 -9.7724248104e+03 +1.1197424360e+03 -1.4277368807e+03 9.9397643367e+03 7.9829010000e+01 0.0000e+00 -1.0000e+00
       24  1    1    2    0    0 +9.7855105375e+03 -1.1428441797e+03 +1.4111938889e+03 9.9528965714e+03 7.9829010000e+01 0.0000e+00 -1.0000e+00
       22  1    1    2    0    0 -5.8009114151e+01 +1.6717006821e+01 +4.2016560004e+00 6.0515862010e+01 0.0000000000e+00 0.0000e+00 -1.0000e+00
       22  1    1    2    0    0 +4.4923387133e+01 +6.3847369280e+00 +1.2341335842e+01 4.7023229871e+01 0.0000000000e+00 0.0000e+00 -1.0000e+00
</event>
<event>
 6      1 +1.4834189e-01 1.01062200e+04 7.81653100e-03 6.93235200e-02
  1000022 -1    0    0    0    0 +0.0000000000e+00 +0.0000000000e+00 +4.4721471353e+01 1.0000100000e+04 1.0000000000e+04 0.0000e+00 1.0000e+00
  1000022 -1    0    0    0    0 -0.0000000000e+00 -0.0000000000e+00 -4.4721471353e+01 1.0000100000e+04 1.0000000000e+04 0.0000e+00 1.0000e+00
      -24  1    1    2    0    0 +4.0754769391e+03 -4.7911230416e+03 -4.9661888330e+03 8.0145977115e+03 7.9829010000e+01 0.0000e+00 -1.0000e+00
       24  1    1    2    0    0 -4.4880513086e+03 +6.6676693480e+03 +5.7692379605e+03 9.8939829390e+03 7.9829010000e+01 0.0000e+00 -1.0000e+00
       22  1    1    2    0    0 +4.2454178782e+01 -5.0434093183e+01 -1.0220379497e+01 6.6711402386e+01 0.0000000000e+00 0.0000e+00 -1.0000e+00
       22  1    1    2    0    0 +3.7012019073e+02 -1.8261122132e+03 -7.9282874801e+02 2.0249079471e+03 0.0000000000e+00 0.0000e+00 -1.0000e+00
</event>
<event>
 6      1 +1.4834189e-01 1.01662400e+04 7.81653100e-03 6.92878500e-02
  1000022 -1    0    0    0    0 +0.0000000000e+00 +0.0000000000e+00 +4.4721471353e+01 1.0000100000e+04 1.0000000000e+04 0.0000e+00 1.0000e+00
  1000022 -1    0    0    0    0 -0.0000000000e+00 -0.0000000000e+00 -4.4721471353e+01 1.0000100000e+04 1.0000000000e+04 0.0000e+00 1.0000e+00
      -24  1    1    2    0    0 -9.7680478911e+02 -9.1881832593e+03 +9.0191708126e+02 9.2842170534e+03 7.9829010000e+01 0.0000e+00 -1.0000e+00
       24  1    1    2    0    0 -5.9952198266e+02 +3.9598626948e+03 -1.2995362168e+03 4.2113069491e+03 7.9829010000e+01 0.0000e+00 -1.0000e+00
       22  1    1    2    0    0 +1.5681949631e+03 +5.7412495109e+03 +1.9998318867e+02 5.9549286028e+03 0.0000000000e+00 0.0000e+00 -1.0000e+00
       22  1    1    2    0    0 +8.1318086799e+00 -5.1292894651e+02 +1.9763594691e+02 5.4974739471e+02 0.0000000000e+00 0.0000e+00 1.0000e+00
</event>
<event>
 6      1 +1.4834189e-01 1.05802600e+04 7.81653100e-03 6.90483500e-02
  1000022 -1    0    0    0    0 +0.0000000000e+00 +0.0000000000e+00 +4.4721471353e+01 1.0000100000e+04 1.0000000000e+04 0.0000e+00 1.0000e+00
  1000022 -1    0    0    0    0 -0.0000000000e+00 -0.0000000000e+00 -4.4721471353e+01 1.0000100000e+04 1.0000000000e+04 0.0000e+00 1.0000e+00
      -24  1    1    2    0    0 -6.5415271699e+03 +6.6385044968e+03 +9.9360875237e+02 9.3730971772e+03 7.9829010000e+01 0.0000e+00 1.0000e+00
       24  1    1    2    0    0 +5.2562696467e+03 -6.7503801215e+03 -2.1618030312e+03 8.8247247776e+03 7.9829010000e+01 0.0000e+00 1.0000e+00
       22  1    1    2    0    0 -3.1519673167e+01 +3.3231345820e+01 +9.8288294275e+00 4.6844615800e+01 0.0000000000e+00 0.0000e+00 1.0000e+00
       22  1    1    2    0    0 +1.3167771964e+03 +7.8644278856e+01 +1.1583654494e+03 1.7555334294e+03 0.0000000000e+00 0.0000e+00 1.0000e+00
</event>
<event>
 6      1 +1.4834189e-01 1.00365400e+04 7.81653100e-03 6.93652400e-02
  1000022 -1    0    0    0    0 +0.0000000000e+00 +0.0000000000e+00 +4.4721471353e+01 1.0000100000e+04 1.0000000000e+04 0.0000e+00 -1.0000e+00
  1000022 -1    0    0    0    0 -0.0000000000e+00 -0.0000000000e+00 -4.4721471353e+01 1.0000100000e+04 1.0000000000e+04 0.0000e+00 -1.0000e+00
      -24  1    1    2    0    0 -2.7841694808e+03 +3.3331275359e+03 +8.9669861806e+03 9.9636616112e+03 7.9829010000e+01 0.0000e+00 1.0000e+00
       24  1    1    2    0    0 +2.5074466693e+03 -2.8467767081e+03 -8.0005233281e+03 8.8547260048e+03 7.9829010000e+01 0.0000e+00 1.0000e+00
       22  1    1    2    0    0 +1.2069899030e+02 -5.0194543728e+02 -8.0830324438e+02 9.5909937084e+02 0.0000000000e+00 0.0000e+00 1.0000e+00
       22  1    1    2    0    0 +1.5602382123e+02 +1.5594609467e+01 -1.5815960809e+02 2.2271301325e+02 0.0000000000e+00 0.0000e+00 1.0000e+00
</event>
<event>
 6      1 +1.4834189e-01 1.00439100e+04 7.81653100e-03 6.93608100e-02
  1000022 -1    0    0    0    0 +0.0000000000e+00 +0.0000000000e+00 +4.4721471353e+01 1.0000100000e+04 1.0000000000e+04 0.0000e+00 1.0000e+00
  1000022 -1    0    0    0    0 -0.0000000000e+00 -0.0000000000e+00 -4.4721471353e+01 1.0000100000e+04 1.0000000000e+04 0.0000e+00 1.0000e+00
      -24  1    1    2    0    0 -1.7635127370e+03 -9.0944220962e+03 -1.7242911664e+03 9.4232713606e+03 7.9829010000e+01 0.0000e+00 -1.0000e+00
       24  1    1    2    0    0 +1.6028341275e+03 +9.6846088993e+03 +1.6614831547e+03 9.9562857390e+03 7.9829010000e+01 0.0000e+00 -1.0000e+00
       22  1    1    2    0    0 +1.4398462120e+02 -5.7474246339e+02 +5.0167328132e+01 5.9462360462e+02 0.0000000000e+00 0.0000e+00 1.0000e+00
       22  1    1    2    0    0 +1.6693988276e+01 -1.5444339681e+01 +1.2640683565e+01 2.6019295796e+01 0.0000000000e+00 0.0000e+00 1.0000e+00
</event>
<event>
 6      1 +1.4834189e-01 1.00384700e+04 7.81653100e-03 6.93640800e-02
  1000022 -1    0    0    0    0 +0.0000000000e+00 +0.0000000000e+00 +4.4721471353e+01 1.0000100000e+04 1.0000000000e+04 0.0000e+00 1.0000e+00
  1000022 -1    0    0    0    0 -0.0000000000e+00 -0.0000000000e+00 -4.4721471353e+01 1.0000100000e+04 1.0000000000e+04 0.0000e+00 1.0000e+00
      -24  1    1    2    0    0 +1.7912876065e+03 -9.7989067497e+03 +4.9302678439e+01 9.9617311851e+03 7.9829010000e+01 0.0000e+00 1.0000e+00
       24  1    1    2    0    0 -1.5277322056e+03 +9.3910805678e+03 +1.3614066511e+02 9.5158429408e+03 7.9829010000e+01 0.0000e+00 1.0000e+00
       22  1    1    2    0    0 -2.6244835103e+02 +3.9246034492e+02 -1.8538601169e+02 5.0722010273e+02 0.0000000000e+00 0.0000e+00 -1.0000e+00
       22  1    1    2    0    0 -1.1070499343e+00 +1.5365836976e+01 -5.7331867625e-02 1.5405771401e+01 0.0000000000e+00 0.0000e+00 -1.0000e+00
</event>
<event>
 6      1 +1.4834189e-01 9.68889300e+03 7.81653100e-03 6.95786300e-02
  1000022 -1    0    0    0    0 +0.0000000000e+00 +0.0000000000e+00 +4.4721471353e+01 1.0000100000e+04 1.0000000000e+04 0.0000e+00 1.0000e+00
  1000022 -1    0    0    0    0 -0.0000000000e+00 -0.0000000000e+00 -4.4721471353e+01 1.0000100000e+04 1.0000000000e+04 0.0000e+00 1.0000e+00
      -24  1    1    2    0    0 +8.5388831288e+02 -1.3691606766e+03 +6.6251104487e+03 6.8192512300e+03 7.9829010000e+01 0.0000e+00 -1.0000e+00
       24  1    1    2    0    0 -2.6959850643e+02 +5.0769786165e+02 -1.9949330541e+02 6.1368617643e+02 7.9829010000e+01 0.0000e+00 -1.0000e+00
       22  1    1    2    0    0 -9.5595890251e+02 +1.5236723477e+03 -9.3625365720e+03 9.5337571769e+03 0.0000000000e+00 0.0000e+00 -1.0000e+00
       22  1    1    2    0    0 +3.7166909606e+02 -6.6220953270e+02 +2.9369194287e+03 3.0335054167e+03 0.0000000000e+00 0.0000e+00 -1.0000e+00
</event>
<event>
 6      1 +1.4834189e-01 1.00222900e+04 7.81653100e-03 6.93738100e-02
  1000022 -1    0    0    0    0 +0.0000000000e+00 +0.0000000000e+00 +4.4721471353e+01 1.0000100000e+04 1.0000000000e+04 0.0000e+00 -1.0000e+00
  1000022 -1    0    0    0    0 -0.0000000000e+00 -0.0000000000e+00 -4.4721471353e+01 1.0000100000e+04 1.0000000000e+04 0.0000e+00 -1.0000e+00
      -24  1    1    2    0    0 +2.4035818503e+01 +2.8391445996e+01 -1.7574786403e+01 8.9807230953e+01 7.9829010000e+01 0.0000e+00 1.0000e+00
       24  1    1    2    0    0 +3.7567120221e+02 -3.9765406257e+03 -1.0679811278e+03 4.1353307679e+03 7.9829010000e+01 0.0000e+00 1.0000e+00
       22  1    1    2    0    0 -1.3149175029e+03 +9.6630407805e+03 +1.8843781315e+03 9.9324843875e+03 0.0000000000e+00 0.0000e+00 1.0000e+00
       22  1    1    2    0    0 +9.1521048222e+02 -5.7148916008e+03 -7.9882221733e+02 5.8425776136e+03 0.0000000000e+00 0.0000e+00 1.0000e+00
</event>
<event>
 6      1 +1.4834189e-01 1.01428900e+04 7.81653100e-03 6.93016900e-02
  1000022 -1    0    0    0    0 +0.0000000000e+00 +0.0000000000e+00 +4.4721471353e+01 1.0000100000e+04 1.0000000000e+04 0.0000e+00 -1.0000e+00
  1000022 -1    0    0    0    0 -0.0000000000e+00 -0.0000000000e+00 -4.4721471353e+01 1.0000100000e+04 1.0000000000e+04 0.0000e+00 -1.0000e+00
      -24  1    1    2    0    0 +8.1605979066e+02 -4.9676337077e+02 -3.5789529226e+02 1.0233225980e+03 7.9829010000e+01 0.0000e+00 -1.0000e+00
       24  1    1    2    0    0 -3.2188371097e+03 +8.3746499461e+03 +4.0822120523e+03 9.8573070343e+03 7.9829010000e+01 0.0000e+00 -1.0000e+00
       22  1    1    2    0    0 +2.1833207064e+03 -7.7795831309e+03 -3.6614453676e+03 8.8710193990e+03 0.0000000000e+00 0.0000e+00 -1.0000e+00
       22  1    1    2    0    0 +2.1945661271e+02 -9.8303444400e+01 -6.2871392440e+01 2.4855096868e+02 0.0000000000e+00 0.0000e+00 -1.0000e+00
</event>
<event>
 6      1 +1.4834189e-01 1.00007400e+04 7.81653100e-03 6.93868100e-02
  1000022 -1    0    0    0    0 +0.0000000000e+00 +0.0000000000e+00 +4.4721471353e+01 1.0000100000e+04 1.0000000000e+04 0.0000e+00 1.0000e+00
  1000022 -1    0    0    0    0 -0.0000000000e+00 -0.0000000000e+00 -4.4721471353e+01 1.0000100000e+04 1.0000000000e+04 0.0000e+00 1.0000e+00
      -24  1    1    2    0    0 +7.5046045734e+03 -5.5070144272e+03 +3.1243235770e+03 9.8190665641e+03 7.9829010000e+01 0.0000e+00 1.0000e+00
       24  1    1    2    0    0 -7.6206013915e+03 +5.6142711558e+03 -3.1887834998e+03 9.9884092356e+03 7.9829010000e+01 0.0000e+00 1.0000e+00
       22  1    1    2    0    0 +1.2368413273e+02 -1.1424027692e+02 +6.8237581947e+01 1.8167270888e+02 0.0000000000e+00 0.0000e+00 -1.0000e+00
       22  1    1    2    0    0 -7.6873146929e+00 +6.9835483239e+00 -3.7776590907e+00 1.1051491419e+01 0.0000000000e+00 0.0000e+00 -1.0000e+00
</event>
<event>
 6      1 +1.4834189e-01 9.40792800e+03 7.81653100e-03 6.97577800e-02
  1000022 -1    0    0    0    0 +0.0000000000e+00 +0.0000000000e+00 +4.4721471353e+01 1.0000100000e+04 1.0000000000e+04 0.0000e+00 -1.0000e+00
  1000022 -1    0    0    0    0 -0.0000000000e+00 -0.0000000000e+00 -4.4721471353e+01 1.0000100000e+04 1.0000000000e+04 0.0000e+00 -1.0000e+00
      -24  1    1    2    0    0 +5.8155109140e+02 -1.0226347854e+02 -1.1288129416e+03 1.2764210978e+03 7.9829010000e+01 0.0000e+00 -1.0000e+00
       24  1    1    2    0    0 -2.0019442197e+03 -1.8215479331e+03 -7.9172254559e+02 2.8211725916e+03 7.9829010000e+01 0.0000e+00 -1.0000e+00
       22  1    1    2    0    0 +7.2192698093e+03 +4.0807097507e+03 +4.2166855105e+03 9.3032513318e+03 0.0000000000e+00 0.0000e+00 1.0000e+00
       22  1    1    2    0    0 -5.7988766810e+03 -2.1568983391e+03 -2.2961500233e+03 6.5993549788e+03 0.0000000000e+00 0.0000e+00 1.0000e+00
</event>
<event>
 6      1 +1.4834189e-01 1.00026000e+04 7.81653100e-03 6.93856800e-02
  1000022 -1    0    0    0    0 +0.0000000000e+00 +0.0000000000e+00 +4.4721471353e+01 1.0000100000e+04 1.0000000000e+04 0.0000e+00 1.0000e+00
  1000022 -1    0    0    0    0 -0.0000000000e+00 -0.0000000000e+00 -4.4721471353e+01 1.0000100000e+04 1.0000000000e+04 0.0000e+00 1.0000e+00
      -24  1    1    2    0    0 -7.4773762519e+03 +4.8832668395e+03 -4.2099721653e+03 9.8735854147e+03 7.9829010000e+01 0.0000e+00 -1.0000e+00
       24  1    1    2    0    0 +7.3828776208e+03 -4.9337622870e+03 +4.2800316704e+03 9.8576841113e+03 7.9829010000e+01 0.0000e+00 -1.0000e+00
       22  1    1    2    0    0 +1.2534786667e+02 -6.4156748368e+01 -3.4252954716e+01 1.4491873912e+02 0.0000000000e+00 0.0000e+00 -1.0000e+00
       22  1    1    2    0    0 -3.0849235598e+01 +1.1465219581e+02 -3.5806550431e+01 1.2401173491e+02 0.0000000000e+00 0.0000e+00 -1.0000e+00
</event>
<event>
 6      1 +1.4834189e-01 1.00006200e+04 7.81653100e-03 6.93868800e-02
  1000022 -1    0    0    0    0 +0.0000000000e+00 +0.0000000000e+00 +4.4721471353e+01 1.0000100000e+04 1.0000000000e+04 0.0000e+00 1.0000e+00
  1000022 -1    0    0    0    0 -0.0000000000e+00 -0.0000000000e+00 -4.4721471353e+01 1.0000100000e+04 1.0000000000e+04 0.0000e+00 1.0000e+00
      -24  1    1    2    0    0 -6.9280217103e+03 -6.4819018121e+03 +2.3122042153e+03 9.7655105819e+03 7.9829010000e+01 0.0000e+00 1.0000e+00
       24  1    1    2    0    0 +7.0450396494e+03 +6.5922915121e+03 -2.3625823188e+03 9.9337333830e+03 7.9829010000e+01 0.0000e+00 1.0000e+00
       22  1    1    2    0    0 +4.9961782202e+01 +4.4275317754e+01 -4.2372309321e+00 6.6891236863e+01 0.0000000000e+00 0.0000e+00 -1.0000e+00
       22  1    1    2    0    0 -1.6697972124e+02 -1.5466501776e+02 +5.4615334397e+01 2.3406479824e+02 0.0000000000e+00 0.0000e+00 1.0000e+00
</event>
<event>
 6      1 +1.4834189e-01 1.00921600e+04 7.81653100e-03 6.93319100e-02
  1000022 -1    0    0    0    0 +0.0000000000e+00 +0.0000000000e+00 +4.4721471353e+01 1.0000100000e+04 1.0000000000e+04 0.0000e+00 1.0000e+00
  1000022 -1    0    0    0    0 -0.0000000000e+00 -0.0000000000e+00 -4.4721471353e+01 1.0000100000e+04 1.0000000000e+04 0.0000e+00 1.0000e+00
      -24  1    1    2    0    0 -3.3167788424e+03 -6.3411565709e+03 -6.0153074604e+03 9.3488814871e+03 7.9829010000e+01 0.0000e+00 -1.0000e+00
       24  1    1    2    0    0 +3.0614273870e+03 +6.8551725586e+03 +6.4650751669e+03 9.9080420890e+03 7.9829010000e+01 0.0000e+00 -1.0000e+00
       22  1    1    2    0    0 +2.7423470273e+02 -4.7851169306e+02 -4.1792294897e+02 6.9198099964e+02 0.0000000000e+00 0.0000e+00 1.0000e+00
       22  1    1    2    0    0 -1.8883247300e+01 -3.5504294647e+01 -3.1844757515e+01 5.1295424242e+01 0.0000000000e+00 0.0000e+00 -1.0000e+00
</event>
<event>
 6      1 +1.4834189e-01 1.00186400e+04 7.81653100e-03 6.93760100e-02
  1000022 -1    0    0    0    0 +0.0000000000e+00 +0.0000000000e+00 +4.4721471353e+01 1.0000100000e+04 1.0000000000e+04 0.0000e+00 1.0000e+00
  1000022 -1    0    0    0    0 -0.0000000000e+00 -0.0000000000e+00 -4.4721471353e+01 1.0000100000e+04 1.0000000000e+04 0.0000e+00 1.0000e+00
      -24  1    1    2    0    0 -1.6017289056e+03 -9.2027503083e+03 -3.2271607516e+03 9.8831719559e+03 7.9829010000e+01 0.0000e+00 -1.0000e+00
       24  1    1    2    0    0 +6.6676717692e+02 +4.9368042825e+03 +1.8250546138e+03 5.3060165855e+03 7.9829010000e+01 0.0000e+00 -1.0000e+00
       22  1    1    2    0    0 +8.9988763424e+02 +4.3304511849e+03 +1.5159498726e+03 4.6755437369e+03 0.0000000000e+00 0.0000e+00 -1.0000e+00
       22  1    1    2    0    0 +3.5074094443e+01 -6.4505159146e+01 -1.1384373478e+02 1.3546772164e+02 0.0000000000e+00 0.0000e+00 -1.0000e+00
</event>
<event>
 6      1 +1.4834189e-01 1.00102300e+04 7.81653100e-03 6.93810800e-02
  1000022 -1    0    0    0    0 +0.0000000000e+00 +0.0000000000e+00 +4.4721471353e+01 1.0000100000e+04 1.0000000000e+04 0.0000e+00 1.0000e+00
  1000022 -1    0    0    0    0 -0.0000000000e+00 -0.0000000000e+00 -4.4721471353e+01 1.0000100000e+04 1.0000000000e+04 0.0000e+00 1.0000e+00
      -24  1    1    2    0    0 +5.9324636767e+03 -7.9396227145e+03 -1.2495196624e+03 9.9899652743e+03 7.9829010000e+01 0.0000e+00 -1.0000e+00
       24  1    1    2    0    0 -5.5414727788e+03 +7.3110039295e+03 +1.1003355471e+03 9.2399031381e+03 7.9829010000e+01 0.0000e+00 -1.0000e+00
       22  1    1    2    0    0 -1.1676680827e+02 +2.1453452673e+02 -2.1426475504e+01 2.4519103680e+02 0.0000000000e+00 0.0000e+00 1.0000e+00
       22  1    1    2    0    0 -2.7422408972e+02 +4.1408425826e+02 +1.7061059084e+02 5.2514055074e+02 0.0000000000e+00 0.0000e+00 1.0000e+00
</event>
<event>
 6      1 +1.4834189e-01 1.00534200e+04 7.81653100e-03 6.93551000e-02
  1000022 -1    0    0    0    0 +0.0000000000e+00 +0.0000000000e+00 +4.4721471353e+01 1.0000100000e+04 1.0000000000e+04 0.0000e+00 1.0000e+00
  1000022 -1    0    0    0    0 -0.0000000000e+00 -0.0000000000e+00 -4.4721471353e+01 1.0000100000e+04 1.0000000000e+04 0.0000e+00 1.0000e+00
      -24  1    1    2    0    0 +6.9801543656e+03 -2.1075053106e+03 +6.5957122550e+03 9.8322899888e+03 7.9829010000e+01 0.0000e+00 1.0000e+00
       24  1    1    2    0    0 -2.5802061782e+02 -1.3672097201e+02 -7.9263799109e+01 3.1292600419e+02 7.9829010000e+01 0.0000e+00 1.0000e+00
       22  1    1    2    0    0 -6.8052447856e+03 +2.2855883417e+03 -6.5834573474e+03 9.7404918410e+03 0.0000000000e+00 0.0000e+00 1.0000e+00
       22  1    1    2    0    0 +8.3111037806e+01 -4.1362059002e+01 +6.7008891553e+01 1.1449216601e+02 0.0000000000e+00 0.0000e+00 1.0000e+00
</event>
<event>
 6      1 +1.4834189e-01 1.00623100e+04 7.81653100e-03 6.93497700e-02
  1000022 -1    0    0    0    0 +0.0000000000e+00 +0.0000000000e+00 +4.4721471353e+01 1.0000100000e+04 1.0000000000e+04 0.0000e+00 1.0000e+00
  1000022 -1    0    0    0    0 -0.0000000000e+00 -0.0000000000e+00 -4.4721471353e+01 1.0000100000e+04 1.0000000000e+04 0.0000e+00 1.0000e+00
      -24  1    1    2    0    0 +7.0955939576e+03 +6.5031611125e+02 +2.6855964546e+03 7.6150617623e+03 7.9829010000e+01 0.0000e+00 -1.0000e+00
       24  1    1    2    0    0 -8.6567984360e+03 -4.9756494944e+02 -4.1526023566e+03 9.6144791353e+03 7.9829010000e+01 0.0000e+00 -1.0000e+00
       22  1    1    2    0    0 +1.8589334139e+03 -1.1490602387e+02 +1.5875076658e+03 2.4472469063e+03 0.0000000000e+00 0.0000e+00 -1.0000e+00
       22  1    1    2    0    0 -2.9772893549e+02 -3.7845137940e+01 -1.2050176383e+02 3.2341219609e+02 0.0000000000e+00 0.0000e+00 1.0000e+00
</event>
<event>
 6      1 +1.4834189e-01 9.30891300e+03 7.81653100e-03 6.98224200e-02
  1000022 -1    0    0    0    0 +0.0000000000e+00 +0.0000000000e+00 +4.4721471353e+01 1.0000100000e+04 1.0000000000e+04 0.0000e+00 1.0000e+00
  1000022 -1    0    0    0    0 -0.0000000000e+00 -0.0000000000e+00 -4.4721471353e+01 1.0000100000e+04 1.0000000000e+04 0.0000e+00 1.0000e+00
      -24  1    1    2    0    0 +1.2268243400e+03 -3.0336775228e+02 -3.2728018854e+02 1.3079047928e+03 7.9829010000e+01 0.0000e+00 1.0000e+00
       24  1    1    2    0    0 -2.8476368804e+03 -7.4375156855e+03 +5.0762179167e+03 9.4445770886e+03 7.9829010000e+01 0.0000e+00 1.0000e+00
       22  1    1    2    0    0 +2.3841785637e+01 -6.5532704597e+00 -1.1347639359e+01 2.7205606317e+01 0.0000000000e+00 0.0000e+00 1.0000e+00
       22  1    1    2    0    0 +1.5969707547e+03 +7.7474367082e+03 -4.7375900888e+03 9.2205125123e+03 0.0000000000e+00 0.0000e+00 1.0000e+00
</event>
<event>
 6      1 +1.4834189e-01 1.00020800e+04 7.81653100e-03 6.93860000e-02
  1000022 -1    0    0    0    0 +0.0000000000e+00 +0.0000000000e+00 +4.4721471353e+01 1.0000100000e+04 1.0000000000e+04 0.0000e+00 1.0000e+00
  1000022 -1    0    0    0    0 -0.0000000000e+00 -0.0000000000e+00 -4.4721471353e+01 1.0000100000e+04 1.0000000000e+04 0.0000e+00 1.0000e+00
      -24  1    1    2    0    0 +8.2037243348e+03 +2.5427769234e+03 +4.6883670618e+03 9.7853955373e+03 7.9829010000e+01 0.0000e+00 1.0000e+00
       24  1    1    2    0    0 -8.3677120890e+03 -2.6066650181e+03 -4.8106887690e+03 9.9981201845e+03 7.9829010000e+01 0.0000e+00 1.0000e+00
       22  1    1    2    0    0 +1.2319517217e+02 +5.6306853125e+01 +7.9504870394e+01 1.5706220605e+02 0.0000000000e+00 0.0000e+00 -1.0000e+00
       22  1    1    2    0    0 +4.0792582002e+01 +7.5812415806e+00 +4.2816836854e+01 5.9622072159e+01 0.0000000000e+00 0.0000e+00 1.0000e+00
</event>
<event>
 6      1 +1.4834189e-01 1.00967100e+04 7.81653100e-03 6.93291900e-02
  1000022 -1    0    0    0    0 +0.0000000000e+00 +0.0000000000e+00 +4.4721471353e+01 1.0000100000e+04 1.0000000000e+04 0.0000e+00 -1.0000e+00
  1000022 -1    0    0    0    0 -0.0000000000e+00 -0.0000000000e+00 -4.4721471353e+01 1.0000100000e+04 1.0000000000e+04 0.0000e+00 -1.0000e+00
      -24  1    1    2    0    0 +7.3648254068e+03 -6.6119179055e+03 +3.3859985401e+02 9.9034910104e+03 7.9829010000e+01 0.0000e+00 -1.0000e+00
       24  1    1    2    0    0 -2.3927027267e+03 +2.5214574375e+03 +1.4504710579e+02 3.4799691495e+03 7.9829010000e+01 0.0000e+00 -1.0000e+00
       22  1    1    2    0    0 -1.7587160054e+03 +7.5124738990e+02 -5.2169832359e+02 1.9823278663e+03 0.0000000000e+00 0.0000e+00 1.0000e+00
       22  1    1    2    0    0 -3.2134066746e+03 +3.3392130780e+03 +3.8051363782e+01 4.6344119738e+03 0.0000000000e+00 0.0000e+00 -1.0000e+00
</event>
<event>
 6      1 +1.4834189e-01 1.00189600e+04 7.81653100e-03 6.93758200e-02
  1000022 -1    0    0    0    0 +0.0000000000e+00 +0.0000000000e+00 +4.4721471353e+01 1.0000100000e+04 1.0000000000e+04 0.0000e+00 1.0000e+00
  1000022 -1    0    0    0    0 -0.0000000000e+00 -0.0000000000e+00 -4.4721471353e+01 1.0000100000e+04 1.0000000000e+04 0.0000e+00 1.0000e+00
      -24  1    1    2    0    0 -4.4775103036e+03 -5.8613318596e+03 -2.0622176069e+03 7.6591398875e+03 7.9829010000e+01 0.0000e+00 1.0000e+00
       24  1    1    2    0    0 +5.8219601787e+03 +7.6223295672e+03 +2.5956299886e+03 9.9367397099e+03 7.9829010000e+01 0.0000e+00 1.0000e+00
       22  1    1    2    0    0 +3.8784237381e+01 +3.0130591499e+00 +7.2440418558e+01 8.2224751964e+01 0.0000000000e+00 0.0000e+00 1.0000e+00
       22  1    1    2    0    0 -1.3832341124e+03 -1.7640107668e+03 -6.0585280030e+02 2.3220956506e+03 0.0000000000e+00 0.0000e+00 1.0000e+00
</event>
<event>
 6      1 +1.4834189e-01 1.00020000e+04 7.81653100e-03 6.93860500e-02
  1000022 -1    0    0    0    0 +0.0000000000e+00 +0.0000000000e+00 +4.4721471353e+01 1.0000100000e+04 1.0000000000e+04 0.0000e+00 1.0000e+00
  1000022 -1    0    0    0    0 -0.0000000000e+00 -0.0000000000e+00 -4.4721471353e+01 1.0000100000e+04 1.0000000000e+04 0.0000e+00 1.0000e+00
      -24  1    1    2    0    0 -6.0695041161e+03 -1.4644971387e+03 +7.7844251393e+03 9.9793426389e+03 7.9829010000e+01 0.0000e+00 -1.0000e+00
       24  1    1    2    0    0 +6.0533469566e+03 +1.4590206148e+03 -7.7551976362e+03 9.9459144164e+03 7.9829010000e+01 0.0000e+00 -1.0000e+00
       22  1    1    2    0    0 -1.0655787131e+01 -1.7767283646e+01 +9.1725941242e+00 2.2657419325e+01 0.0000000000e+00 0.0000e+00 1.0000e+00
       22  1    1    2    0    0 +2.6812946631e+01 +2.3243807582e+01 -3.8400097262e+01 5.2285525412e+01 0.0000000000e+00 0.0000e+00 1.0000e+00
</event>
<event>
 6      1 +1.4834189e-01 1.00006200e+04 7.81653100e-03 6.93868800e-02
  1000022 -1    0    0    0    0 +0.0000000000e+00 +0.0000000000e+00 +4.4721471353e+01 1.0000100000e+04 1.0000000000e+04 0.0000e+00 -1.0000e+00
  1000022 -1    0    0    0    0 -0.0000000000e+00 -0.0000000000e+00 -4.4721471353e+01 1.0000100000e+04 1.0000000000e+04 0.0000e+00 -1.0000e+00
      -24  1    1    2    0    0 +1.8593726109e+03 -1.4257500437e+03 -2.0891949003e+03 3.1402448464e+03 7.9829010000e+01 0.0000e+00 0.0000e+00
       24  1    1    2    0    0 -5.9725438841e+03 +4.6167019968e+03 +6.4750031512e+03 9.9457154721e+03 7.9829010000e+01 0.0000e+00 1.0000e+00
       22  1    1    2    0    0 -3.5644872017e+01 +2.8441747973e+01 +2.8666820518e+01 5.3863499027e+01 0.0000000000e+00 0.0000e+00 1.0000e+00
       22  1    1    2    0    0 +4.1488161452e+03 -3.2193937010e+03 -4.4144750714e+03 6.8603761825e+03 0.0000000000e+00 0.0000e+00 1.0000e+00
</event>
<event>
 6      1 +1.4834189e-01 9.35461500e+03 7.81653100e-03 6.97924900e-02
  1000022 -1    0    0    0    0 +0.0000000000e+00 +0.0000000000e+00 +4.4721471353e+01 1.0000100000e+04 1.0000000000e+04 0.0000e+00 -1.0000e+00
  1000022 -1    0    0    0    0 -0.0000000000e+00 -0.0000000000e+00 -4.4721471353e+01 1.0000100000e+04 1.0000000000e+04 0.0000e+00 -1.0000e+00
      -24  1    1    2    0    0 -1.4609831202e+02 +6.5089743925e+01 +1.4032582946e+02 2.2725624478e+02 7.9829010000e+01 0.0000e+00 1.0000e+00
       24  1    1    2    0    0 +5.9662381185e+02 -4.9510599374e+02 -6.9625184231e+02 1.0450977068e+03 7.9829010000e+01 0.0000e+00 -1.0000e+00
       22  1    1    2    0    0 -1.9682192839e+03 +5.8478853012e+03 -6.9845145481e+03 9.3196079917e+03 0.0000000000e+00 0.0000e+00 -1.0000e+00
       22  1    1    2    0    0 +1.5176937841e+03 -5.4178690514e+03 +7.5404405610e+03 9.4082380568e+03 0.0000000000e+00 0.0000e+00 -1.0000e+00
</event>
<event>
 6      1 +1.4834189e-01 1.00015400e+04 7.81653100e-03 6.93863200e-02
  1000022 -1    0    0    0    0 +0.0000000000e+00 +0.0000000000e+00 +4.4721471353e+01 1.0000100000e+04 1.0000000000e+04 0.0000e+00 -1.0000e+00
  1000022 -1    0    0    0    0 -0.0000000000e+00 -0.0000000000e+00 -4.4721471353e+01 1.0000100000e+04 1.0000000000e+04 0.0000e+00 -1.0000e+00
      -24  1    1    2    0    0 -8.4158684151e+03 +4.0748604926e+03 -3.4988385552e+03 9.9839658012e+03 7.9829010000e+01 0.0000e+00 1.0000e+00
       24  1    1    2    0    0 +8.3852773378e+03 -4.0508215423e+03 +3.4578203735e+03 9.9340286695e+03 7.9829010000e+01 0.0000e+00 1.0000e+00
       22  1    1    2    0    0 +1.7897112374e+00 +1.2026089488e+01 -8.2519768604e+00 1.4694387255e+01 0.0000000000e+00 0.0000e+00 1.0000e+00
       22  1    1    2    0    0 +2.8801366045e+01 -3.6065039732e+01 +4.9270158548e+01 6.7511142046e+01 0.0000000000e+00 0.0000e+00 -1.0000e+00
</event>
<event>
 6      1 +1.4834189e-01 1.01424500e+04 7.81653100e-03 6.93019500e-02
  1000022 -1    0    0    0    0 +0.0000000000e+00 +0.0000000000e+00 +4.4721471353e+01 1.0000100000e+04 1.0000000000e+04 0.0000e+00 1.0000e+00
  1000022 -1    0    0    0    0 -0.0000000000e+00 -0.0000000000e+00 -4.4721471353e+01 1.0000100000e+04 1.0000000000e+04 0.0000e+00 1.0000e+00
      -24  1    1    2    0    0 +2.0624271358e+03 +1.6176409306e+03 +9.5025535275e+03 9.8577514720e+03 7.9829010000e+01 0.0000e+00 -1.0000e+00
       24  1    1    2    0    0 -5.5115816982e+02 -2.2564908660e+02 -3.2026192032e+03 3.2585019979e+03 7.9829010000e+01 0.0000e+00 -1.0000e+00
       22  1    1    2    0    0 -6.4751409943e+02 -1.0087144586e+03 -5.5488544154e+03 5.6768446069e+03 0.0000000000e+00 0.0000e+00 -1.0000e+00
       22  1    1    2    0    0 -8.6375486654e+02 -3.8327738537e+02 -7.5107990887e+02 1.2071019232e+03 0.0000000000e+00 0.0000e+00 -1.0000e+00
</event>
<event>
 6      1 +1.4834189e-01 1.00001000e+04 7.81653100e-03 6.93871900e-02
  1000022 -1    0    0    0    0 +0.0000000000e+00 +0.0000000000e+00 +4.4721471353e+01 1.0000100000e+04 1.0000000000e+04 0.0000e+00 -1.0000e+00
  1000022 -1    0    0    0    0 -0.0000000000e+00 -0.0000000000e+00 -4.4721471353e+01 1.0000100000e+04 1.0000000000e+04 0.0000e+00 -1.0000e+00
      -24  1    1    2    0    0 +8.6366365899e+03 -3.8148893375e+03 +3.2487894382e+03 9.9852830570e+03 7.9829010000e+01 0.0000e+00 -1.0000e+00
       24  1    1    2    0    0 -8.6224628707e+03 +3.8073759437e+03 -3.2430964236e+03 9.9683009895e+03 7.9829010000e+01 0.0000e+00 -1.0000e+00
       22  1    1    2    0    0 +1.2757096794e+01 -5.0612892069e+00 +5.5972255381e+00 1.4821912858e+01 0.0000000000e+00 0.0000e+00 -1.0000e+00
       22  1    1    2    0    0 -2.6930815969e+01 +1.2574682996e+01 -1.1290240152e+01 3.1794040698e+01 0.0000000000e+00 0.0000e+00 -1.0000e+00
</event>
<event>
 6      1 +1.4834189e-01 1.00477100e+04 7.81653100e-03 6.93585300e-02
  1000022 -1    0    0    0    0 +0.0000000000e+00 +0.0000000000e+00 +4.4721471353e+01 1.0000100000e+04 1.0000000000e+04 0.0000e+00 1.0000e+00
  1000022 -1    0    0    0    0 -0.0000000000e+00 -0.0000000000e+00 -4.4721471353e+01 1.0000100000e+04 1.0000000000e+04 0.0000e+00 1.0000e+00
      -24  1    1    2    0    0 -5.7513359017e+03 +6.3978809212e+03 -3.7716942733e+03 9.3937636386e+03 7.9829010000e+01 0.0000e+00 1.0000e+00
       24  1    1    2    0    0 +2.6585162970e+02 -2.8358060466e+02 +1.1457309055e+02 4.1303112748e+02 7.9829010000e+01 0.0000e+00 0.0000e+00
       22  1    1    2    0    0 -3.4014784496e+02 +5.4956914771e+02 +9.9562833096e+01 6.5394155877e+02 0.0000000000e+00 0.0000e+00 -1.0000e+00
       22  1    1    2    0    0 +5.8256321170e+03 -6.6638694642e+03 +3.5575583497e+03 9.5394636752e+03 0.0000000000e+00 0.0000e+00 1.0000e+00
</event>
<event>
 6      1 +1.4834189e-01 5.80027100e+03 7.81653100e-03 7.28422600e-02
  1000022 -1    0    0    0    0 +0.0000000000e+00 +0.0000000000e+00 +4.4721471353e+01 1.0000100000e+04 1.0000000000e+04 0.0000e+00 -1.0000e+00
  1000022 -1    0    0    0    0 -0.0000000000e+00 -0.0000000000e+00 -4.4721471353e+01 1.0000100000e+04 1.0000000000e+04 0.0000e+00 -1.0000e+00
      -24  1    1    2    0    0 +6.3687835807e+03 +1.6444852679e+02 +1.7735279722e+03 6.6136390705e+03 7.9829010000e+01 0.0000e+00 -1.0000e+00
       24  1    1    2    0    0 -6.9609863599e+03 +4.3113729330e+03 +6.9724186445e+02 8.2180159746e+03 7.9829010000e+01 0.0000e+00 -1.0000e+00
       22  1    1    2    0    0 +2.2060917854e+01 -9.4626751123e-01 +5.1830281329e+00 2.2681342540e+01 0.0000000000e+00 0.0000e+00 1.0000e+00
       22  1    1    2    0    0 +5.7014186135e+02 -4.4748751923e+03 -2.4759528648e+03 5.1458636124e+03 0.0000000000e+00 0.0000e+00 -1.0000e+00
</event>
<event>
 6      1 +1.4834189e-01 1.00658300e+04 7.81653100e-03 6.93476600e-02
  1000022 -1    0    0    0    0 +0.0000000000e+00 +0.0000000000e+00 +4.4721471353e+01 1.0000100000e+04 1.0000000000e+04 0.0000e+00 -1.0000e+00
  1000022 -1    0    0    0    0 -0.0000000000e+00 -0.0000000000e+00 -4.4721471353e+01 1.0000100000e+04 1.0000000000e+04 0.0000e+00 -1.0000e+00
      -24  1    1    2    0    0 +2.6385844190e+03 -5.4428384172e+03 -6.7167164694e+03 9.0392074085e+03 7.9829010000e+01 0.0000e+00 -1.0000e+00
       24  1    1    2    0    0 -3.1418950494e+03 +5.7391453602e+03 +7.4750257382e+03 9.9343684462e+03 7.9829010000e+01 0.0000e+00 -1.0000e+00
       22  1    1    2    0    0 +2.9071798970e+02 +3.1034903523e+01 -2.4294518642e+02 3.8013481605e+02 0.0000000000e+00 0.0000e+00 -1.0000e+00
       22  1    1    2    0    0 +2.1259264070e+02 -3.2734184650e+02 -5.1536408237e+02 6.4648932919e+02 0.0000000000e+00 0.0000e+00 1.0000e+00
</event>
<event>
 6      1 +1.4834189e-01 1.00668900e+04 7.81653100e-03 6.93470200e-02
  1000022 -1    0    0    0    0 +0.0000000000e+00 +0.0000000000e+00 +4.4721471353e+01 1.0000100000e+04 1.0000000000e+04 0.0000e+00 1.0000e+00
  1000022 -1    0    0    0    0 -0.0000000000e+00 -0.0000000000e+00 -4.4721471353e+01 1.0000100000e+04 1.0000000000e+04 0.0000e+00 1.0000e+00
      -24  1    1    2    0    0 +8.2255551097e+03 -5.5586005408e+03 -3.2622125488e+02 9.9333070934e+03 7.9829010000e+01 0.0000e+00 1.0000e+00
       24  1    1    2    0    0 -7.2835191821e+03 +4.4925268486e+03 +5.5375703933e+02 8.5758654777e+03 7.9829010000e+01 0.0000e+00 1.0000e+00
       22  1    1    2    0    0 -5.5186606291e+02 +8.4061362481e+02 -2.6180180730e+02 1.0390994196e+03 0.0000000000e+00 0.0000e+00 -1.0000e+00
       22  1    1    2    0    0 -3.9016986465e+02 +2.2546006732e+02 +3.4266022855e+01 4.5192800927e+02 0.0000000000e+00 0.0000e+00 -1.0000e+00
</event>
<event>
 6      1 +1.4834189e-01 1.01712900e+04 7.81653100e-03 6.92848500e-02
  1000022 -1    0    0    0    0 +0.0000000000e+00 +0.0000000000e+00 +4.4721471353e+01 1.0000100000e+04 1.0000000000e+04 0.0000e+00 1.0000e+00
  1000022 -1    0    0    0    0 -0.0000000000e+00 -0.0000000000e+00 -4.4721471353e+01 1.0000100000e+04 1.0000000000e+04 0.0000e+00 1.0000e+00
      -24  1    1    2    0    0 +7.3123372662e+02 +1.3954037179e+03 +5.1986622663e+02 1.6608696106e+03 7.9829010000e+01 0.0000e+00 1.0000e+00
       24  1    1    2    0    0 -5.1703195617e+03 -7.8561520611e+03 -2.8547707470e+03 9.8289072773e+03 7.9829010000e+01 0.0000e+00 1.0000e+00
       22  1    1    2    0    0 +1.6004456436e+03 +4.3232686291e+03 +1.0196632703e+03 4.7214183338e+03 0.0000000000e+00 0.0000e+00 1.0000e+00
       22  1    1    2    0    0 +2.8386401914e+03 +2.1374797140e+03 +1.3152412501e+03 3.7890047783e+03 0.0000000000e+00 0.0000e+00 1.0000e+00
</event>
<event>
 6      1 +1.4834189e-01 1.00004900e+04 7.81653100e-03 6.93869600e-02
  1000022 -1    0    0    0    0 +0.0000000000e+00 +0.0000000000e+00 +4.4721471353e+01 1.0000100000e+04 1.0000000000e+04 0.0000e+00 -1.0000e+00
  1000022 -1    0    0    0    0 -0.0000000000e+00 -0.0000000000e+00 -4.4721471353e+01 1.0000100000e+04 1.0000000000e+04 0.0000e+00 -1.0000e+00
      -24  1    1    2    0    0 +2.6486270804e+03 -8.1149402640e+03 -5.1312375513e+03 9.9600929904e+03 7.9829010000e+01 0.0000e+00 -1.0000e+00
       24  1    1    2    0    0 -2.5110455024e+03 +7.7762661875e+03 +4.9209004608e+03 9.5392504606e+03 7.9829010000e+01 0.0000e+00 -1.0000e+00
       22  1    1    2    0    0 -1.4890053502e+02 +3.6927512344e+02 +2.3281520717e+02 4.6123573887e+02 0.0000000000e+00 0.0000e+00 -1.0000e+00
       22  1    1    2    0    0 +1.1318957057e+01 -3.0601046929e+01 -2.2478116679e+01 3.9620810081e+01 0.0000000000e+00 0.0000e+00 -1.0000e+00
</event>
<event>
 6      1 +1.4834189e-01 1.00558300e+04 7.81653100e-03 6.93536500e-02
  1000022 -1    0    0    0    0 +0.0000000000e+00 +0.0000000000e+00 +4.4721471353e+01 1.0000100000e+04 1.0000000000e+04 0.0000e+00 1.0000e+00
  1000022 -1    0    0    0    0 -0.0000000000e+00 -0.0000000000e+00 -4.4721471353e+01 1.0000100000e+04 1.0000000000e+04 0.0000e+00 1.0000e+00
      -24  1    1    2    0    0 -5.7237337008e+02 +6.4833864364e+02 -2.2009487737e+03 2.3661154762e+03 7.9829010000e+01 0.0000e+00 0.0000e+00
       24  1    1    2    0    0 +4.1301256835e+02 -1.5097785964e+01 +3.7567900699e+02 5.6419386020e+02 7.9829010000e+01 0.0000e+00 1.0000e+00
       22  1    1    2    0    0 -1.9491621314e+03 +2.1722022625e+03 -6.9937300830e+03 7.5782554825e+03 0.0000000000e+00 0.0000e+00 -1.0000e+00
       22  1    1    2    0    0 +2.1085229332e+03 -2.8054431202e+03 +8.8189998497e+03 9.4916351810e+03 0.0000000000e+00 0.0000e+00 -1.0000e+00
</event>
<event>
 6      1 +1.4834189e-01 1.00988800e+04 7.81653100e-03 6.93278900e-02
  1000022 -1    0    0    0    0 +0.0000000000e+00 +0.0000000000e+00 +4.4721471353e+01 1.0000100000e+04 1.0000000000e+04 0.0000e+00 1.0000e+00
  1000022 -1    0    0    0    0 -0.0000000000e+00 -0.0000000000e+00 -4.4721471353e+01 1.0000100000e+04 1.0000000000e+04 0.0000e+00 1.0000e+00
      -24  1    1    2    0    0 +5.4523407608e+02 +9.3660982828e+03 -2.2470345698e+03 9.6476222081e+03 7.9829010000e+01 0.0000e+00 -1.0000e+00
       24  1    1    2    0    0 -1.3799921431e+02 -9.2501474810e+03 +2.3152432261e+03 9.5368231645e+03 7.9829010000e+01 0.0000e+00 -1.0000e+00
       22  1    1    2    0    0 -3.0582532637e+01 -3.6180973357e+02 -3.1923039975e+01 3.6450055568e+02 0.0000000000e+00 0.0000e+00 -1.0000e+00
       22  1    1    2    0    0 -3.7665232914e+02 +2.4585893175e+02 -3.6285616369e+01 4.5125407180e+02 0.0000000000e+00 0.0000e+00 1.0000e+00
</event>
<event>
 6      1 +1.4834189e-01 1.00335400e+04 7.81653100e-03 6.93670400e-02
  1000022 -1    0    0    0    0 +0.0000000000e+00 +0.0000000000e+00 +4.4721471353e+01 1.0000100000e+04 1.0000000000e+04 0.0000e+00 -1.0000e+00
  1000022 -1    0    0    0    0 -0.0000000000e+00 -0.0000000000e+00 -4.4721471353e+01 1.0000100000e+04 1.0000000000e+04 0.0000e+00 -1.0000e+00
      -24  1    1    2    0    0 +1.5162828161e+03 -6.3538711620e+03 -7.2562829274e+03 9.7637496340e+03 7.9829010000e+01 0.0000e+00 1.0000e+00
       24  1    1    2    0    0 -1.3775075025e+03 +6.4470737877e+03 +7.2739795734e+03 9.8173030333e+03 7.9829010000e+01 0.0000e+00 1.0000e+00
       22  1    1    2    0    0 +2.6805991717e+01 -1.3290065613e+02 -1.5097516024e+02 2.0291536315e+02 0.0000000000e+00 0.0000e+00 -1.0000e+00
       22  1    1    2    0    0 -1.6558130535e+02 +3.9698030424e+01 +1.3327851425e+02 2.1623196957e+02 0.0000000000e+00 0.0000e+00 -1.0000e+00
</event>
<event>
 6      1 +1.4834189e-01 1.00669200e+04 7.81653100e-03 6.93470100e-02
  1000022 -1    0    0    0    0 +0.0000000000e+00 +0.0000000000e+00 +4.4721471353e+01 1.0000100000e+04 1.0000000000e+04 0.0000e+00 1.0000e+00
  1000022 -1    0    0    0    0 -0.0000000000e+00 -0.0000000000e+00 -4.4721471353e+01 1.0000100000e+04 1.0000000000e+04 0.0000e+00 1.0000e+00
      -24  1    1    2    0    0 -3.7626301505e+03 -8.2147609079e+03 +1.1481328920e+03 9.1084721129e+03 7.9829010000e+01 0.0000e+00 -1.0000e+00
       24  1    1    2    0    0 +3.0479762393e+03 +6.4914432095e+03 -6.0047606359e+02 7.1969395072e+03 7.9829010000e+01 0.0000e+00 -1.0000e+00
       22  1    1    2    0    0 -4.4908806006e+02 -7.4856309144e+02 -3.9571388201e+02 9.5844471096e+02 0.0000000000e+00 0.0000e+00 -1.0000e+00
       22  1    1    2    0    0 +1.1637419713e+03 +2.4718807899e+03 -1.5194294636e+02 2.7363436689e+03 0.0000000000e+00 0.0000e+00 -1.0000e+00
</event>
<event>
 6      1 +1.4834189e-01 1.00069100e+04 7.81653100e-03 6.93830800e-02
  1000022 -1    0    0    0    0 +0.0000000000e+00 +0.0000000000e+00 +4.4721471353e+01 1.0000100000e+04 1.0000000000e+04 0.0000e+00 1.0000e+00
  1000022 -1    0    0    0    0 -0.0000000000e+00 -0.0000000000e+00 -4.4721471353e+01 1.0000100000e+04 1.0000000000e+04 0.0000e+00 1.0000e+00
      -24  1    1    2    0    0 +7.5539137383e+03 +8.8328557911e+02 +7.9158604418e+02 7.6468808880e+03 7.9829010000e+01 0.0000e+00 -1.0000e+00
       24  1    1    2    0    0 -9.8614151338e+03 -1.3229913598e+03 -9.2822798199e+02 9.9932874689e+03 7.9829010000e+01 0.0000e+00 -1.0000e+00
       22  1    1    2    0    0 +2.2781784881e+03 +4.2417093748e+02 +1.1453576361e+02 2.3201587551e+03 0.0000000000e+00 0.0000e+00 -1.0000e+00
       22  1    1    2    0    0 +2.9322907453e+01 +1.5534843258e+01 +2.2106174196e+01 3.9872887958e+01 0.0000000000e+00 0.0000e+00 1.0000e+00
</event>
<event>
 6      1 +1.4834189e-01 1.01621800e+04 7.81653100e-03 6.92902500e-02
  1000022 -1    0    0    0    0 +0.0000000000e+00 +0.0000000000e+00 +4.4721471353e+01 1.0000100000e+04 1.0000000000e+04 0.0000e+00 1.0000e+00
  1000022 -1    0    0    0    0 -0.0000000000e+00 -0.0000000000e+00 -4.4721471353e+01 1.0000100000e+04 1.0000000000e+04 0.0000e+00 1.0000e+00
      -24  1    1    2    0    0 +7.5784364471e+02 -2.2199456597e+03 +9.5539385956e+03 9.8380181480e+03 7.9829010000e+01 0.0000e+00 -1.0000e+00
       24  1    1    2    0    0 -1.6543364869e+02 +8.1318796996e+02 -3.7232795055e+03 3.8154719123e+03 7.9829010000e+01 0.0000e+00 -1.0000e+00
       22  1    1    2    0    0 -5.9139754439e+02 +1.9575564877e+02 -3.1195165048e+02 6.9669588901e+02 0.0000000000e+00 0.0000e+00 -1.0000e+00
       22  1    1    2    0    0 -1.0124516369e+00 +1.2110020410e+03 -5.5187074397e+03 5.6500140507e+03 0.0000000000e+00 0.0000e+00 -1.0000e+00
</event>
<event>
 6      1 +1.4834189e-01 1.01253900e+04 7.81653100e-03 6.93120900e-02
  1000022 -1    0    0    0    0 +0.0000000000e+00 +0.0000000000e+00 +4.4721471353e+01 1.0000100000e+04 1.0000000000e+04 0.0000e+00 -1.0000e+00
  1000022 -1    0    0    0    0 -0.0000000000e+00 -0.0000000000e+00 -4.4721471353e+01 1.0000100000e+04 1.0000000000e+04 0.0000e+00 -1.0000e+00
      -24  1    1    2    0    0 -3.6588010420e+03 +9.4239808267e+02 +8.4794156293e+03 9.2834153896e+03 7.9829010000e+01 0.0000e+00 -1.0000e+00
       24  1    1    2    0    0 +4.2893668328e+03 -9.6413664960e+02 -8.5704871363e+03 9.6326450017e+03 7.9829010000e+01 0.0000e+00 -1.0000e+00
       22  1    1    2    0    0 +1.6881896899e+02 +1.2365601107e+01 -1.7317302756e+02 2.4216038045e+02 0.0000000000e+00 0.0000e+00 1.0000e+00
       22  1    1    2    0    0 -7.9938475976e+02 +9.3729658201e+00 +2.6424453457e+02 8.4197922817e+02 0.0000000000e+00 0.0000e+00 -1.0000e+00
</event>
<event>
 6      1 +1.4834189e-01 1.01738600e+04 7.81653100e-03 6.92833400e-02
  1000022 -1    0    0    0    0 +0.0000000000e+00 +0.0000000000e+00 +4.4721471353e+01 1.0000100000e+04 1.0000000000e+04 0.0000e+00 -1.0000e+00
  1000022 -1    0    0    0    0 -0.0000000000e+00 -0.0000000000e+00 -4.4721471353e+01 1.0000100000e+04 1.0000000000e+04 0.0000e+00 -1.0000e+00
      -24  1    1    2    0    0 +7.6978095087e+03 +5.8835601828e+03 +8.0258236516e+02 9.7222971966e+03 7.9829010000e+01 0.0000e+00 1.0000e+00
       24  1    1    2    0    0 -5.9039718851e+02 -1.0183276050e+02 -7.1800624887e+02 9.3853310840e+02 7.9829010000e+01 0.0000e+00 -1.0000e+00
       22  1    1    2    0    0 +1.2460878957e+01 +9.9237863197e+01 +2.8678928515e+01 1.0404762341e+02 0.0000000000e+00 0.0000e+00 -1.0000e+00
       22  1    1    2    0    0 -7.1198731991e+03 -5.8809652855e+03 -1.1325504481e+02 9.2353220716e+03 0.0000000000e+00 0.0000e+00 1.0000e+00
</event>
<event>
 6      1 +1.4834189e-01 1.00012200e+04 7.81653100e-03 6.93865200e-02
  1000022 -1    0    0    0    0 +0.0000000000e+00 +0.0000000000e+00 +4.4721471353e+01 1.0000100000e+04 1.0000000000e+04 0.0000e+00 1.0000e+00
  1000022 -1    0    0    0    0 -0.0000000000e+00 -0.0000000000e+00 -4.4721471353e+01 1.0000100000e+04 1.0000000000e+04 0.0000e+00 1.0000e+00
      -24  1    1    2    0    0 -8.6221090884e+03 +2.2229956445e+03 -1.5195013351e+03 9.0331462817e+03 7.9829010000e+01 0.0000e+00 -1.0000e+00
       24  1    1    2    0    0 +9.5459205291e+03 -2.4567999891e+03 +1.6771163617e+03 9.9989777926e+03 7.9829010000e+01 0.0000e+00 -1.0000e+00
       22  1    1    2    0    0 -9.1085308467e+02 +2.3748821694e+02 -1.5207619296e+02 9.5350991789e+02 0.0000000000e+00 0.0000e+00 -1.0000e+00
       22  1    1    2    0    0 -1.2958356045e+01 -3.6838723552e+00 -5.5388336393e+00 1.4566007860e+01 0.0000000000e+00 0.0000e+00 1.0000e+00
</event>
<event>
 6      1 +1.4834189e-01 1.01491900e+04 7.81653100e-03 6.92979500e-02
  1000022 -1    0    0    0    0 +0.0000000000e+00 +0.0000000000e+00 +4.4721471353e+01 1.0000100000e+04 1.0000000000e+04 0.0000e+00 -1.0000e+00
  1000022 -1    0    0    0    0 -0.0000000000e+00 -0.0000000000e+00 -4.4721471353e+01 1.0000100000e+04 1.0000000000e+04 0.0000e+00 -1.0000e+00
      -24  1    1    2    0    0 +1.1640266588e+02 -6.2897020121e+02 +1.4991190216e+03 1.6318344299e+03 7.9829010000e+01 0.0000e+00 -1.0000e+00
       24  1    1    2    0    0 -5.3855768654e+03 +4.9664258804e+03 -6.5012050191e+03 9.7949917596e+03 7.9829010000e+01 0.0000e+00 -1.0000e+00
       22  1    1    2    0    0 +5.3019663384e+03 -4.3634397344e+03 +5.0393352035e+03 8.5173559666e+03 0.0000000000e+00 0.0000e+00 -1.0000e+00
       22  1    1    2    0    0 -3.2792138841e+01 +2.5984055154e+01 -3.7249206037e+01 5.6017843964e+01 0.0000000000e+00 0.0000e+00 -1.0000e+00
</event>
<event>
 6      1 +1.4834189e-01 1.01833700e+04 7.81653100e-03 6.92777100e-02
  1000022 -1    0    0    0    0 +0.0000000000e+00 +0.0000000000e+00 +4.4721471353e+01 1.0000100000e+04 1.0000000000e+04 0.0000e+00 -1.0000e+00
  1000022 -1    0    0    0    0 -0.0000000000e+00 -0.0000000000e+00 -4.4721471353e+01 1.0000100000e+04 1.0000000000e+04 0.0000e+00 -1.0000e+00
      -24  1    1    2    0    0 -2.1916795955e+03 +5.3812240275e+03 +4.3393094930e+03 7.2523796805e+03 7.9829010000e+01 0.0000e+00 -1.0000e+00
       24  1    1    2    0    0 +3.6357855272e+03 -6.1819678788e+03 -4.2815095308e+03 8.3530449411e+03 7.9829010000e+01 0.0000e+00 -1.0000e+00
       22  1    1    2    0    0 -2.1705744753e+03 +1.8626018090e+03 +6.4032200929e+02 2.9309881145e+03 0.0000000000e+00 0.0000e+00 -1.0000e+00
       22  1    1    2    0    0 +7.2646854354e+02 -1.0618579577e+03 -6.9812197153e+02 1.4637872640e+03 0.0000000000e+00 0.0000e+00 -1.0000e+00
</event>
<event>
 6      1 +1.4834189e-01 1.00233800e+04 7.81653100e-03 6.93731600e-02
  1000022 -1    0    0    0    0 +0.0000000000e+00 +0.0000000000e+00 +4.4721471353e+01 1.0000100000e+04 1.0000000000e+04 0.0000e+00 1.0000e+00
  1000022 -1    0    0    0    0 -0.0000000000e+00 -0.0000000000e+00 -4.4721471353e+01 1.0000100000e+04 1.0000000000e+04 0.0000e+00 1.0000e+00
      -24  1    1    2    0    0 +4.8581325259e+03 -2.7532200943e+03 +8.2673402073e+03 9.9768211020e+03 7.9829010000e+01 0.0000e+00 1.0000e+00
       24  1    1    2    0    0 -4.7798380858e+03 +2.7743467946e+03 -8.1807260349e+03 9.8729176738e+03 7.9829010000e+01 0.0000e+00 1.0000e+00
       22  1    1    2    0    0 -4.6826662875e+01 +2.5525802034e+01 -7.6548105820e+01 9.3294777079e+01 0.0000000000e+00 0.0000e+00 1.0000e+00
       22  1    1    2    0    0 -3.1467777195e+01 -4.6652502397e+01 -1.0066066603e+01 5.7166447138e+01 0.0000000000e+00 0.0000e+00 1.0000e+00
</event>
<event>
 6      1 +1.4834189e-01 1.01459100e+04 7.81653100e-03 6.92999000e-02
  1000022 -1    0    0    0    0 +0.0000000000e+00 +0.0000000000e+00 +4.4721471353e+01 1.0000100000e+04 1.0000000000e+04 0.0000e+00 -1.0000e+00
  1000022 -1    0    0    0    0 -0.0000000000e+00 -0.0000000000e+00 -4.4721471353e+01 1.0000100000e+04 1.0000000000e+04 0.0000e+00 -1.0000e+00
      -24  1    1    2    0    0 +9.3976148334e+03 -2.2034190668e+03 -1.9825581641e+03 9.8542949867e+03 7.9829010000e+01 0.0000e+00 1.0000e+00
       24  1    1    2    0    0 -7.4437225270e+02 -3.9965005062e+02 +2.6741607542e+01 8.4905712291e+02 7.9829010000e+01 0.0000e+00 -1.0000e+00
       22  1    1    2    0    0 -8.5302909483e+03 +2.6431750018e+03 +2.0145386427e+03 9.1548131437e+03 0.0000000000e+00 0.0000e+00 1.0000e+00
       22  1    1    2    0    0 -1.2295163239e+02 -4.0105884330e+01 -5.8722086166e+01 1.4203474670e+02 0.0000000000e+00 0.0000e+00 -1.0000e+00
</event>
<event>
 6      1 +1.4834189e-01 1.00003900e+04 7.81653100e-03 6.93870200e-02
  1000022 -1    0    0    0    0 +0.0000000000e+00 +0.0000000000e+00 +4.4721471353e+01 1.0000100000e+04 1.0000000000e+04 0.0000e+00 1.0000e+00
  1000022 -1    0    0    0    0 -0.0000000000e+00 -0.0000000000e+00 -4.4721471353e+01 1.0000100000e+04 1.0000000000e+04 0.0000e+00 1.0000e+00
      -24  1    1    2    0    0 -7.3610903617e+03 +5.1678984925e+03 -3.8834781109e+03 9.7969689726e+03 7.9829010000e+01 0.0000e+00 -1.0000e+00
       24  1    1    2    0    0 +6.8369728905e+03 -4.8304738035e+03 +3.6311762629e+03 9.1252117343e+03 7.9829010000e+01 0.0000e+00 -1.0000e+00
       22  1    1    2    0    0 -1.6210004264e+02 +1.1126594126e+02 -5.2178803719e+01 2.0341868416e+02 0.0000000000e+00 0.0000e+00 -1.0000e+00
       22  1    1    2    0    0 +6.8621751383e+02 -4.4869063023e+02 +3.0448065169e+02 8.7460060896e+02 0.0000000000e+00 0.0000e+00 -1.0000e+00
</event>
<event>
 6      1 +1.4834189e-01 1.03348300e+04 7.81653100e-03 6.91889600e-02
  1000022 -1    0    0    0    0 +0.0000000000e+00 +0.0000000000e+00 +4.4721471353e+01 1.0000100000e+04 1.0000000000e+04 0.0000e+00 1.0000e+00
  1000022 -1    0    0    0    0 -0.0000000000e+00 -0.0000000000e+00 -4.4721471353e+01 1.0000100000e+04 1.0000000000e+04 0.0000e+00 1.0000e+00
      -24  1    1    2    0    0 +6.1827657522e+03 +4.2808775719e+03 +6.0175531814e+03 9.6317093028e+03 7.9829010000e+01 0.0000e+00 1.0000e+00
       24  1    1    2    0    0 -5.2367395485e+03 -3.8045293879e+03 -6.4834354560e+03 9.1618334925e+03 7.9829010000e+01 0.0000e+00 1.0000e+00
       22  1    1    2    0    0 +2.2657942566e+01 +1.3255776718e+01 +2.1073146269e+01 3.3662671781e+01 0.0000000000e+00 0.0000e+00 -1.0000e+00
       22  1    1    2    0    0 -9.6868414620e+02 -4.8960396079e+02 +4.4480912828e+02 1.1729945329e+03 0.0000000000e+00 0.0000e+00 1.0000e+00
</event>
<event>
 6      1 +1.4834189e-01 1.00242400e+04 7.81653100e-03 6.93726400e-02
  1000022 -1    0    0    0    0 +0.0000000000e+00 +0.0000000000e+00 +4.4721471353e+01 1.0000100000e+04 1.0000000000e+04 0.0000e+00 1.0000e+00
  1000022 -1    0    0    0    0 -0.0000000000e+00 -0.0000000000e+00 -4.4721471353e+01 1.0000100000e+04 1.0000000000e+04 0.0000e+00 1.0000e+00
      -24  1    1    2    0    0 +3.2446773542e+03 -4.2295614313e+03 +6.9025034956e+03 8.7216998464e+03 7.9829010000e+01 0.0000e+00 1.0000e+00
       24  1    1    2    0    0 -3.6982577605e+03 +4.5520441582e+03 -8.0694043484e+03 9.9759649002e+03 7.9829010000e+01 0.0000e+00 1.0000e+00
       22  1    1    2    0    0 +3.8418501759e+02 -2.3069833591e+02 +1.0328217986e+03 1.1258511081e+03 0.0000000000e+00 0.0000e+00 -1.0000e+00
       22  1    1    2    0    0 +6.9395388792e+01 -9.1784390976e+01 +1.3407905416e+02 1.7668414523e+02 0.0000000000e+00 0.0000e+00 1.0000e+00
</event>
<event>
 6      1 +1.4834189e-01 1.00016900e+04 7.81653100e-03 6.93862300e-02
  1000022 -1    0    0    0    0 +0.0000000000e+00 +0.0000000000e+00 +4.4721471353e+01 1.0000100000e+04 1.0000000000e+04 0.0000e+00 -1.0000e+00
  1000022 -1    0    0    0    0 -0.0000000000e+00 -0.0000000000e+00 -4.4721471353e+01 1.0000100000e+04 1.0000000000e+04 0.0000e+00 -1.0000e+00
      -24  1    1    2    0    0 +1.0383006512e+02 +8.6655404688e+03 +4.9217263014e+03 9.9665507953e+03 7.9829010000e+01 0.0000e+00 -1.0000e+00
       24  1    1    2    0    0 -8.9066594280e+01 -8.0470737999e+03 -4.5640059269e+03 9.2520188268e+03 7.9829010000e+01 0.0000e+00 -1.0000e+00
       22  1    1    2    0    0 +1.5061988752e+01 +2.9516370127e+01 +1.1701381785e+01 3.5142594473e+01 0.0000000000e+00 0.0000e+00 -1.0000e+00
       22  1    1    2    0    0 -2.9825459588e+01 -6.4798303899e+02 -3.6942175625e+02 7.4648778345e+02 0.0000000000e+00 0.0000e+00 1.0000e+00
</event>
<event>
 6      1 +1.4834189e-01 1.01490200e+04 7.81653100e-03 6.92980500e-02
  1000022 -1    0    0    0    0 +0.0000000000e+00 +0.0000000000e+00 +4.4721471353e+01 1.0000100000e+04 1.0000000000e+04 0.0000e+00 1.0000e+00
  1000022 -1    0    0    0    0 -0.0000000000e+00 -0.0000000000e+00 -4.4721471353e+01 1.0000100000e+04 1.0000000000e+04 0.0000e+00 1.0000e+00
      -24  1    1    2    0    0 +9.5269323020e+03 +1.7632379864e+03 -1.7140283590e+03 9.8394976076e+03 7.9829010000e+01 0.0000e+00 -1.0000e+00
       24  1    1    2    0    0 -8.6423519670e+02 -9.0119581213e+02 -6.1869203466e+01 1.2526998189e+03 7.9829010000e+01 0.0000e+00 1.0000e+00
       22  1    1    2    0    0 -8.6739617846e+03 -8.6476768079e+02 +1.7773741314e+03 8.8963191818e+03 0.0000000000e+00 0.0000e+00 -1.0000e+00
       22  1    1    2    0    0 +1.1264679278e+01 +2.7255065388e+00 -1.4765688387e+00 1.1683391659e+01 0.0000000000e+00 0.0000e+00 -1.0000e+00
</event>
<event>
 6      1 +1.4834189e-01 1.00692200e+04 7.81653100e-03 6.93456200e-02
  1000022 -1    0    0    0    0 +0.0000000000e+00 +0.0000000000e+00 +4.4721471353e+01 1.0000100000e+04 1.0000000000e+04 0.0000e+00 -1.0000e+00
  1000022 -1    0    0    0    0 -0.0000000000e+00 -0.0000000000e+00 -4.4721471353e+01 1.0000100000e+04 1.0000000000e+04 0.0000e+00 -1.0000e+00
      -24  1    1    2    0    0 +3.9132679486e+03 +2.5569553346e+03 -6.1842274808e+03 7.7525949737e+03 7.9829010000e+01 0.0000e+00 -1.0000e+00
       24  1    1    2    0    0 -2.3016650297e+02 -1.8915778246e+02 +3.8388570894e+02 4.9244105649e+02 7.9829010000e+01 0.0000e+00 0.0000e+00
       22  1    1    2    0    0 -3.9719610260e+03 -3.3247153553e+03 +7.8902308859e+03 9.4385353746e+03 0.0000000000e+00 0.0000e+00 -1.0000e+00
       22  1    1    2    0    0 +2.8885958029e+02 +9.5691780306e+02 -2.0898891140e+03 2.3166285952e+03 0.0000000000e+00 0.0000e+00 -1.0000e+00
</event>
<event>
 6      1 +1.4834189e-01 1.03040700e+04 7.81653100e-03 6.92068600e-02
  1000022 -1    0    0    0    0 +0.0000000000e+00 +0.0000000000e+00 +4.4721471353e+01 1.0000100000e+04 1.0000000000e+04 0.0000e+00 1.0000e+00
  1000022 -1    0    0    0    0 -0.0000000000e+00 -0.0000000000e+00 -4.4721471353e+01 1.0000100000e+04 1.0000000000e+04 0.0000e+00 1.0000e+00
      -24  1    1    2    0    0 +9.3603407043e+03 -2.1482156998e+03 -1.3333471280e+03 9.6961330451e+03 7.9829010000e+01 0.0000e+00 1.0000e+00
       24  1    1    2    0    0 -4.8811119294e+02 -1.0020113269e+02 +6.7711654918e+00 5.0468933334e+02 7.9829010000e+01 0.0000e+00 0.0000e+00
       22  1    1    2    0    0 -2.9989689958e+03 -6.2320691996e+02 -2.5332249295e+02 3.0734954349e+03 0.0000000000e+00 0.0000e+00 1.0000e+00
       22  1    1    2    0    0 -5.8732605156e+03 +2.8716237524e+03 +1.5798984554e+03 6.7258821867e+03 0.0000000000e+00 0.0000e+00 1.0000e+00
</event>
<event>
 6      1 +1.4834189e-01 1.00015500e+04 7.81653100e-03 6.93863200e-02
  1000022 -1    0    0    0    0 +0.0000000000e+00 +0.0000000000e+00 +4.4721471353e+01 1.0000100000e+04 1.0000000000e+04 0.0000e+00 -1.0000e+00
  1000022 -1    0    0    0    0 -0.0000000000e+00 -0.0000000000e+00 -4.4721471353e+01 1.0000100000e+04 1.0000000000e+04 0.0000e+00 -1.0000e+00
      -24  1    1    2    0    0 -6.9034364533e+03 -5.9796213812e+03 -4.0685667400e+03 9.9986456441e+03 7.9829010000e+01 0.0000e+00 1.0000e+00
       24  1    1    2    0    0 +5.9462630969e+03 +5.1692940015e+03 +3.4843903043e+03 8.6155089087e+03 7.9829010000e+01 0.0000e+00 1.0000e+00
       22  1    1    2    0    0 +9.4351755894e+02 +7.9846069298e+02 +5.6304768460e+02 1.3582295673e+03 0.0000000000e+00 0.0000e+00 -1.0000e+00
       22  1    1    2    0    0 +1.3655797426e+01 +1.1866686677e+01 +2.1128751120e+01 2.7815879995e+01 0.0000000000e+00 0.0000e+00 -1.0000e+00
</event>
<event>
 6      1 +1.4834189e-01 1.00280200e+04 7.81653100e-03 6.93703700e-02
  1000022 -1    0    0    0    0 +0.0000000000e+00 +0.0000000000e+00 +4.4721471353e+01 1.0000100000e+04 1.0000000000e+04 0.0000e+00 -1.0000e+00
  1000022 -1    0    0    0    0 -0.0000000000e+00 -0.0000000000e+00 -4.4721471353e+01 1.0000100000e+04 1.0000000000e+04 0.0000e+00 -1.0000e+00
      -24  1    1    2    0    0 +2.0295700182e+03 +4.3654958149e+03 +5.2906534170e+03 7.1536070914e+03 7.9829010000e+01 0.0000e+00 1.0000e+00
       24  1    1    2    0    0 -2.7072056186e+03 -4.0705182663e+03 -5.5552205682e+03 7.4003330634e+03 7.9829010000e+01 0.0000e+00 1.0000e+00
       22  1    1    2    0    0 -5.7544595001e+02 -1.4237056467e+03 -2.0630899437e+03 2.5718506811e+03 0.0000000000e+00 0.0000e+00 -1.0000e+00
       22  1    1    2    0    0 +1.2530815504e+03 +1.1287280981e+03 +2.3276570949e+03 2.8744091641e+03 0.0000000000e+00 0.0000e+00 1.0000e+00
</event>
<event>
 6      1 +1.4834189e-01 9.01954500e+03 7.81653100e-03 7.00160800e-02
  1000022 -1    0    0    0    0 +0.0000000000e+00 +0.0000000000e+00 +4.4721471353e+01 1.0000100000e+04 1.0000000000e+04 0.0000e+00 -1.0000e+00
  1000022 -1    0    0    0    0 -0.0000000000e+00 -0.0000000000e+00 -4.4721471353e+01 1.0000100000e+04 1.0000000000e+04 0.0000e+00 -1.0000e+00
      -24  1    1    2    0    0 -2.3930351453e+03 -1.2452190837e+03 -8.9810281278e+03 9.3777623491e+03 7.9829010000e+01 0.0000e+00 -1.0000e+00
       24  1    1    2    0    0 -9.0915031356e+00 +1.6504494825e+03 +8.6936054079e+02 1.8671439608e+03 7.9829010000e+01 0.0000e+00 -1.0000e+00
       22  1    1    2    0    0 -2.9279911018e+01 +2.3785833123e+00 -1.4008574216e+02 1.4313275657e+02 0.0000000000e+00 0.0000e+00 1.0000e+00
       22  1    1    2    0    0 +2.4314065595e+03 -4.0760898212e+02 +8.2517533291e+03 8.6121609335e+03 0.0000000000e+00 0.0000e+00 -1.0000e+00
</event>
<event>
 6      1 +1.4834189e-01 1.00004800e+04 7.81653100e-03 6.93869700e-02
  1000022 -1    0    0    0    0 +0.0000000000e+00 +0.0000000000e+00 +4.4721471353e+01 1.0000100000e+04 1.0000000000e+04 0.0000e+00 -1.0000e+00
  1000022 -1    0    0    0    0 -0.0000000000e+00 -0.0000000000e+00 -4.4721471353e+01 1.0000100000e+04 1.0000000000e+04 0.0000e+00 -1.0000e+00
      -24  1    1    2    0    0 -6.9528398190e+03 +7.8912345576e+01 +4.9450854980e+03 8.5327868812e+03 7.9829010000e+01 0.0000e+00 1.0000e+00
       24  1    1    2    0    0 +8.1213409230e+03 -1.3260659380e+02 -5.7389033478e+03 9.9456094435e+03 7.9829010000e+01 0.0000e+00 1.0000e+00
       22  1    1    2    0    0 +4.4491948167e+01 +8.9584594521e-01 -3.0788225292e+01 5.4113314519e+01 0.0000000000e+00 0.0000e+00 1.0000e+00
       22  1    1    2    0    0 -1.2129930521e+03 +5.2798402275e+01 +8.2460607517e+02 1.4676903607e+03 0.0000000000e+00 0.0000e+00 1.0000e+00
</event>
<event>
 6      1 +1.4834189e-01 1.04792800e+04 7.81653100e-03 6.91057400e-02
  1000022 -1    0    0    0    0 +0.0000000000e+00 +0.0000000000e+00 +4.4721471353e+01 1.0000100000e+04 1.0000000000e+04 0.0000e+00 1.0000e+00
  1000022 -1    0    0    0    0 -0.0000000000e+00 -0.0000000000e+00 -4.4721471353e+01 1.0000100000e+04 1.0000000000e+04 0.0000e+00 1.0000e+00
      -24  1    1    2    0    0 +6.7377410644e+03 -6.3461017944e+03 -2.1132117408e+03 9.4943245767e+03 7.9829010000e+01 0.0000e+00 -1.0000e+00
       24  1    1    2    0    0 -2.8029153327e+03 +5.3418676051e+03 +3.9827619116e+02 6.0462286153e+03 7.9829010000e+01 0.0000e+00 -1.0000e+00
       22  1    1    2    0    0 +1.8004829678e+01 -1.1963987793e+01 -1.5496346274e+01 2.6597887951e+01 0.0000000000e+00 0.0000e+00 -1.0000e+00
       22  1    1    2    0    0 -3.9528305614e+03 +1.0161981771e+03 +1.7304318959e+03 4.4330489201e+03 0.0000000000e+00 0.0000e+00 -1.0000e+00
</event>
<event>
 6      1 +1.4834189e-01 1.00342200e+04 7.81653100e-03 6.93666400e-02
  1000022 -1    0    0    0    0 +0.0000000000e+00 +0.0000000000e+00 +4.4721471353e+01 1.0000100000e+04 1.0000000000e+04 0.0000e+00 1.0000e+00
  1000022 -1    0    0    0    0 -0.0000000000e+00 -0.0000000000e+00 -4.4721471353e+01 1.0000100000e+04 1.0000000000e+04 0.0000e+00 1.0000e+00
      -24  1    1    2    0    0 -9.8832539397e+02 -4.5086745136e+03 +6.8163125656e+03 8.2324615162e+03 7.9829010000e+01 0.0000e+00 -1.0000e+00
       24  1    1    2    0    0 +1.3264116606e+03 +5.5089642960e+03 -8.1979514820e+03 9.9659839795e+03 7.9829010000e+01 0.0000e+00 -1.0000e+00
       22  1    1    2    0    0 -2.6026437493e+02 -1.0287299641e+03 +1.3392423166e+03 1.7086816165e+03 0.0000000000e+00 0.0000e+00 -1.0000e+00
       22  1    1    2    0    0 -7.7821891743e+01 +2.8440181718e+01 +4.2396599838e+01 9.3072887827e+01 0.0000000000e+00 0.0000e+00 -1.0000e+00
</event>
<event>
 6      1 +1.4834189e-01 1.03397700e+04 7.81653100e-03 6.91860900e-02
  1000022 -1    0    0    0    0 +0.0000000000e+00 +0.0000000000e+00 +4.4721471353e+01 1.0000100000e+04 1.0000000000e+04 0.0000e+00 1.0000e+00
  1000022 -1    0    0    0    0 -0.0000000000e+00 -0.0000000000e+00 -4.4721471353e+01 1.0000100000e+04 1.0000000000e+04 0.0000e+00 1.0000e+00
      -24  1    1    2    0    0 -7.1449509742e+03 +3.3215351556e+03 -4.9008924331e+03 9.2794417680e+03 7.9829010000e+01 0.0000e+00 -1.0000e+00
       24  1    1    2    0    0 +7.0221523212e+03 -3.9030266582e+03 +3.4339947758e+03 8.7374443122e+03 7.9829010000e+01 0.0000e+00 -1.0000e+00
       22  1    1    2    0    0 +5.2439620977e+02 -9.2746129462e+01 +7.5386454317e+02 9.2298698734e+02 0.0000000000e+00 0.0000e+00 -1.0000e+00
       22  1    1    2    0    0 -4.0159755674e+02 +6.7423763201e+02 +7.1303311407e+02 1.0603269325e+03 0.0000000000e+00 0.0000e+00 -1.0000e+00
</event>
<event>
 6      1 +1.4834189e-01 1.00155200e+04 7.81653100e-03 6.93778900e-02
  1000022 -1    0    0    0    0 +0.0000000000e+00 +0.0000000000e+00 +4.4721471353e+01 1.0000100000e+04 1.0000000000e+04 0.0000e+00 -1.0000e+00
  1000022 -1    0    0    0    0 -0.0000000000e+00 -0.0000000000e+00 -4.4721471353e+01 1.0000100000e+04 1.0000000000e+04 0.0000e+00 -1.0000e+00
      -24  1    1    2    0    0 +3.3490287705e+03 +2.9884247669e+03 -1.0827576366e+03 4.6179446796e+03 7.9829010000e+01 0.0000e+00 1.0000e+00
       24  1    1    2    0    0 -7.1119212977e+03 -6.7941316650e+03 +1.5779686171e+03 9.9617271220e+03 7.9829010000e+01 0.0000e+00 1.0000e+00
       22  1    1    2    0    0 -1.7647617747e+01 -1.4655136230e+01 +8.9960800072e-01 2.2956931952e+01 0.0000000000e+00 0.0000e+00 -1.0000e+00
       22  1    1    2    0    0 +3.7805401449e+03 +3.8203620343e+03 -4.9611058851e+02 5.3975712665e+03 0.0000000000e+00 0.0000e+00 1.0000e+00
</event>
<event>
 6      1 +1.4834189e-01 1.00066700e+04 7.81653100e-03 6.93832300e-02
  1000022 -1    0    0    0    0 +0.0000000000e+00 +0.0000000000e+00 +4.4721471353e+01 1.0000100000e+04 1.0000000000e+04 0.0000e+00 -1.0000e+00
  1000022 -1    0    0    0    0 -0.0000000000e+00 -0.0000000000e+00 -4.4721471353e+01 1.0000100000e+04 1.0000000000e+04 0.0000e+00 -1.0000e+00
      -24  1    1    2    0    0 +8.4201682103e+03 -2.7343775800e+03 -1.8865269176e+03 9.0521494641e+03 7.9829010000e+01 0.0000e+00 1.0000e+00
       24  1    1    2    0    0 -1.6241590860e+03 +7.0590508009e+02 +4.5778368588e+02 1.8308832002e+03 7.9829010000e+01 0.0000e+00 1.0000e+00
       22  1    1    2    0    0 -7.6715335814e+03 +2.3183874537e+03 +1.6174406868e+03 8.1757851153e+03 0.0000000000e+00 0.0000e+00 1.0000e+00
       22  1    1    2    0    0 +8.7552445711e+02 -2.8991495377e+02 -1.8869745506e+02 9.4138222044e+02 0.0000000000e+00 0.0000e+00 1.0000e+00
</event>
<event>
 6      1 +1.4834189e-01 1.00289400e+04 7.81653100e-03 6.93698100e-02
  1000022 -1    0    0    0    0 +0.0000000000e+00 +0.0000000000e+00 +4.4721471353e+01 1.0000100000e+04 1.0000000000e+04 0.0000e+00 -1.0000e+00
  1000022 -1    0    0    0    0 -0.0000000000e+00 -0.0000000000e+00 -4.4721471353e+01 1.0000100000e+04 1.0000000000e+04 0.0000e+00 -1.0000e+00
      -24  1    1    2    0    0 -8.6188850606e+02 +7.7912037427e+03 -5.6069149744e+03 9.6379238303e+03 7.9829010000e+01 0.0000e+00 -1.0000e+00
       24  1    1    2    0    0 +8.4365372570e+02 -7.9478684156e+03 +5.9614877319e+03 9.9712623378e+03 7.9829010000e+01 0.0000e+00 -1.0000e+00
       22  1    1    2    0    0 -2.8861143002e+00 +1.5562327952e+01 -1.1827035929e+01 1.9758402919e+01 0.0000000000e+00 0.0000e+00 1.0000e+00
       22  1    1    2    0    0 +2.1120894657e+01 +1.4110234494e+02 -3.4274572155e+02 3.7125542903e+02 0.0000000000e+00 0.0000e+00 -1.0000e+00
</event>
<event>
 6      1 +1.4834189e-01 1.00144800e+04 7.81653100e-03 6.93785200e-02
  1000022 -1    0    0    0    0 +0.0000000000e+00 +0.0000000000e+00 +4.4721471353e+01 1.0000100000e+04 1.0000000000e+04 0.0000e+00 -1.0000e+00
  1000022 -1    0    0    0    0 -0.0000000000e+00 -0.0000000000e+00 -4.4721471353e+01 1.0000100000e+04 1.0000000000e+04 0.0000e+00 -1.0000e+00
      -24  1    1    2    0    0 +6.8849516906e+03 +3.0462370181e+03 +6.5594222294e+03 9.9857154179e+03 7.9829010000e+01 0.0000e+00 -1.0000e+00
       24  1    1    2    0    0 -5.3695399250e+03 -2.4195555372e+03 -5.3634202551e+03 7.9661067974e+03 7.9829010000e+01 0.0000e+00 -1.0000e+00
       22  1    1    2    0    0 -1.1781860115e+03 -4.9196127620e+02 -1.0639674352e+03 1.6619792051e+03 0.0000000000e+00 0.0000e+00 -1.0000e+00
       22  1    1    2    0    0 -3.3722575413e+02 -1.3472020474e+02 -1.3203453919e+02 3.8639857965e+02 0.0000000000e+00 0.0000e+00 1.0000e+00
</event>
<event>
 6      1 +1.4834189e-01 9.81895800e+03 7.81653100e-03 6.94977500e-02
  1000022 -1    0    0    0    0 +0.0000000000e+00 +0.0000000000e+00 +4.4721471353e+01 1.0000100000e+04 1.0000000000e+04 0.0000e+00 1.0000e+00
  1000022 -1    0    0    0    0 -0.0000000000e+00 -0.0000000000e+00 -4.4721471353e+01 1.0000100000e+04 1.0000000000e+04 0.0000e+00 1.0000e+00
      -24  1    1    2    0    0 +4.5251089316e+03 +8.4422196554e+03 +1.5111355455e+03 9.6972979155e+03 7.9829010000e+01 0.0000e+00 -1.0000e+00
       24  1    1    2    0    0 +2.3533453667e+02 -1.6207776846e+02 +2.1789796445e+02 3.6810832771e+02 7.9829010000e+01 0.0000e+00 -1.0000e+00
       22  1    1    2    0    0 +2.1388233663e+01 +1.0592001890e+02 +4.9286934479e+01 1.1876745705e+02 0.0000000000e+00 0.0000e+00 1.0000e+00
       22  1    1    2    0    0 -4.7818317020e+03 -8.3860619059e+03 -1.7783204445e+03 9.8160262998e+03 0.0000000000e+00 0.0000e+00 -1.0000e+00
</event>
<event>
 6      1 +1.4834189e-01 1.00111200e+04 7.81653100e-03 6.93805400e-02
  1000022 -1    0    0    0    0 +0.0000000000e+00 +0.0000000000e+00 +4.4721471353e+01 1.0000100000e+04 1.0000000000e+04 0.0000e+00 1.0000e+00
  1000022 -1    0    0    0    0 -0.0000000000e+00 -0.0000000000e+00 -4.4721471353e+01 1.0000100000e+04 1.0000000000e+04 0.0000e+00 1.0000e+00
      -24  1    1    2    0    0 -8.7702406108e+03 +2.5398614845e+03 -3.9024712916e+03 9.9299381460e+03 7.9829010000e+01 0.0000e+00 -1.0000e+00
       24  1    1    2    0    0 +8.6669898236e+03 -2.4349560530e+03 +3.8996190965e+03 9.8111734951e+03 7.9829010000e+01 0.0000e+00 -1.0000e+00
       22  1    1    2    0    0 +1.5761925597e+02 -1.2153123756e+02 +1.9133221975e+01 1.9994937294e+02 0.0000000000e+00 0.0000e+00 1.0000e+00
       22  1    1    2    0    0 -5.4368468807e+01 +1.6625806065e+01 -1.6281026883e+01 5.9138985991e+01 0.0000000000e+00 0.0000e+00 -1.0000e+00
</event>
<event>
 6      1 +1.4834189e-01 1.01370800e+04 7.81653100e-03 6.93051400e-02
  1000022 -1    0    0    0    0 +0.0000000000e+00 +0.0000000000e+00 +4.4721471353e+01 1.0000100000e+04 1.0000000000e+04 0.0000e+00 -1.0000e+00
  1000022 -1    0    0    0    0 -0.0000000000e+00 -0.0000000000e+00 -4.4721471353e+01 1.0000100000e+04 1.0000000000e+04 0.0000e+00 -1.0000e+00
      -24  1    1    2    0    0 +2.7600729007e+03 +3.2925088280e+03 -8.6987879809e+03 9.7022627158e+03 7.9829010000e+01 0.0000e+00 -1.0000e+00
       24  1    1    2    0    0 -2.0986152035e+03 -3.5883328561e+03 +7.1821482218e+03 8.2987917319e+03 7.9829010000e+01 0.0000e+00 -1.0000e+00
       22  1    1    2    0    0 -7.5033895213e+02 +3.3881966005e+02 +1.6436263429e+03 1.8382912881e+03 0.0000000000e+00 0.0000e+00 -1.0000e+00
       22  1    1    2    0    0 +8.8881254932e+01 -4.2995631979e+01 -1.2698658379e+02 1.6085426420e+02 0.0000000000e+00 0.0000e+00 -1.0000e+00
</event>
<event>
 6      1 +1.4834189e-01 1.00322500e+04 7.81653100e-03 6.93678200e-02
  1000022 -1    0    0    0    0 +0.0000000000e+00 +0.0000000000e+00 +4.4721471353e+01 1.0000100000e+04 1.0000000000e+04 0.0000e+00 1.0000e+00
  1000022 -1    0    0    0    0 -0.0000000000e+00 -0.0000000000e+00 -4.4721471353e+01 1.0000100000e+04 1.0000000000e+04 0.0000e+00 1.0000e+00
      -24  1    1    2    0    0 +3.0422790839e+00 +1.1048853525e+03 +8.1893002081e+02 1.3776066012e+03 7.9829010000e+01 0.0000e+00 1.0000e+00
       24  1    1    2    0    0 -4.9544909277e+01 -1.5905427216e+03 -2.0124212085e+03 2.5668059215e+03 7.9829010000e+01 0.0000e+00 0.0000e+00
       22  1    1    2    0    0 -8.9405707248e+01 +4.8849374827e+03 +7.1436849462e+03 8.6546428119e+03 0.0000000000e+00 0.0000e+00 1.0000e+00
       22  1    1    2    0    0 +1.3590833744e+02 -4.3992801137e+03 -5.9501937585e+03 7.4011446654e+03 0.0000000000e+00 0.0000e+00 1.0000e+00
</event>
<event>
 6      1 +1.4834189e-01 1.00249600e+04 7.81653100e-03 6.93722000e-02
  1000022 -1    0    0    0    0 +0.0000000000e+00 +0.0000000000e+00 +4.4721471353e+01 1.0000100000e+04 1.0000000000e+04 0.0000e+00 1.0000e+00
  1000022 -1    0    0    0    0 -0.0000000000e+00 -0.0000000000e+00 -4.4721471353e+01 1.0000100000e+04 1.0000000000e+04 0.0000e+00 1.0000e+00
      -24  1    1    2    0    0 +4.8951339002e+03 -7.5759939755e+03 -4.2592197684e+03 9.9752366550e+03 7.9829010000e+01 0.0000e+00 1.0000e+00
       24  1    1    2    0    0 -3.2138797027e+03 +4.9862132278e+03 +2.7425366990e+03 6.5359945924e+03 7.9829010000e+01 0.0000e+00 1.0000e+00
       22  1    1    2    0    0 +4.3926625928e+01 +3.2770958292e+01 +8.5903623896e+00 5.5473223260e+01 0.0000000000e+00 0.0000e+00 1.0000e+00
       22  1    1    2    0    0 -1.7251808234e+03 +2.5570097894e+03 +1.5080927070e+03 3.4334955293e+03 0.0000000000e+00 0.0000e+00 1.0000e+00
</event>
<event>
 6      1 +1.4834189e-01 1.03324900e+04 7.81653100e-03 6.91903200e-02
  1000022 -1    0    0    0    0 +0.0000000000e+00 +0.0000000000e+00 +4.4721471353e+01 1.0000100000e+04 1.0000000000e+04 0.0000e+00 -1.0000e+00
  1000022 -1    0    0    0    0 -0.0000000000e+00 -0.0000000000e+00 -4.4721471353e+01 1.0000100000e+04 1.0000000000e+04 0.0000e+00 -1.0000e+00
      -24  1    1    2    0    0 -8.9915058444e+03 +8.7836164937e+02 -2.8771721244e+03 9.4817292010e+03 7.9829010000e+01 0.0000e+00 1.0000e+00
       24  1    1    2    0    0 +6.3792444765e+03 -2.0395016515e+02 +1.0443384313e+02 6.3838573652e+03 7.9829010000e+01 0.0000e+00 1.0000e+00
       22  1    1    2    0    0 +2.7565313246e+03 -7.7823525435e+02 +2.7180152700e+03 3.9486354684e+03 0.0000000000e+00 0.0000e+00 1.0000e+00
       22  1    1    2    0    0 -1.4426995669e+02 +1.0382377014e+02 +5.4723011345e+01 1.8597796541e+02 0.0000000000e+00 0.0000e+00 1.0000e+00
</event>
<event>
 6      1 +1.4834189e-01 1.09190200e+04 7.81653100e-03 6.88604500e-02
  1000022 -1    0    0    0    0 +0.0000000000e+00 +0.0000000000e+00 +4.4721471353e+01 1.0000100000e+04 1.0000000000e+04 0.0000e+00 1.0000e+00
  1000022 -1    0    0    0    0 -0.0000000000e+00 -0.0000000000e+00 -4.4721471353e+01 1.0000100000e+04 1.0000000000e+04 0.0000e+00 1.0000e+00
      -24  1    1    2    0    0 +6.1091071598e+03 -2.6508444102e+03 -2.1379382109e+02 6.6633510223e+03 7.9829010000e+01 0.0000e+00 -1.0000e+00
       24  1    1    2    0    0 -8.5469345336e+03 +2.0554350836e+03 +2.2774171449e+03 9.0811841093e+03 7.9829010000e+01 0.0000e+00 -1.0000e+00
       22  1    1    2    0    0 +2.0771140589e+03 +1.6208607075e+03 -1.4758983615e+03 3.0199119557e+03 0.0000000000e+00 0.0000e+00 -1.0000e+00
       22  1    1    2    0    0 +3.6071331480e+02 -1.0254513809e+03 -5.8772496228e+02 1.2357529127e+03 0.0000000000e+00 0.0000e+00 1.0000e+00
</event>
<event>
 6      1 +1.4834189e-01 1.04312600e+04 7.81653100e-03 6.91332500e-02
  1000022 -1    0    0    0    0 +0.0000000000e+00 +0.0000000000e+00 +4.4721471353e+01 1.0000100000e+04 1.0000000000e+04 0.0000e+00 -1.0000e+00
  1000022 -1    0    0    0    0 -0.0000000000e+00 -0.0000000000e+00 -4.4721471353e+01 1.0000100000e+04 1.0000000000e+04 0.0000e+00 -1.0000e+00
      -24  1    1    2    0    0 +3.1091318621e+03 -3.6406515708e+03 -6.8078457887e+01 4.7887422298e+03 7.9829010000e+01 0.0000e+00 -1.0000e+00
       24  1    1    2    0    0 -6.3482356279e+03 +5.8069697272e+03 +4.1257998144e+03 9.5419908709e+03 7.9829010000e+01 0.0000e+00 -1.0000e+00
       22  1    1    2    0    0 +7.7318613223e+00 +1.1686358214e+01 +2.3024778098e+01 2.6953535098e+01 0.0000000000e+00 0.0000e+00 -1.0000e+00
       22  1    1    2    0    0 +3.2313719045e+03 -2.1780045146e+03 -4.0807461346e+03 5.6425133643e+03 0.0000000000e+00 0.0000e+00 -1.0000e+00
</event>
<event>
 6      1 +1.4834189e-01 1.00020600e+04 7.81653100e-03 6.93860100e-02
  1000022 -1    0    0    0    0 +0.0000000000e+00 +0.0000000000e+00 +4.4721471353e+01 1.0000100000e+04 1.0000000000e+04 0.0000e+00 -1.0000e+00
  1000022 -1    0    0    0    0 -0.0000000000e+00 -0.0000000000e+00 -4.4721471353e+01 1.0000100000e+04 1.0000000000e+04 0.0000e+00 -1.0000e+00
      -24  1    1    2    0    0 +5.4990153935e+03 +7.6275944258e+03 -3.2771590757e+03 9.9581881535e+03 7.9829010000e+01 0.0000e+00 1.0000e+00
       24  1    1    2    0    0 -5.0407785601e+03 -6.8837582427e+03 +2.9148475582e+03 9.0165561605e+03 7.9829010000e+01 0.0000e+00 1.0000e+00
       22  1    1    2    0    0 -4.8059433317e+02 -7.7473810420e+02 +3.7420210700e+02 9.8550355660e+02 0.0000000000e+00 0.0000e+00 1.0000e+00
       22  1    1    2    0    0 +2.2357499780e+01 +3.0901921160e+01 -1.1890589518e+01 3.9952129441e+01 0.0000000000e+00 0.0000e+00 -1.0000e+00
</event>
<event>
 6      1 +1.4834189e-01 1.00298000e+04 7.81653100e-03 6.93692900e-02
  1000022 -1    0    0    0    0 +0.0000000000e+00 +0.0000000000e+00 +4.4721471353e+01 1.0000100000e+04 1.0000000000e+04 0.0000e+00 1.0000e+00
  1000022 -1    0    0    0    0 -0.0000000000e+00 -0.0000000000e+00 -4.4721471353e+01 1.0000100000e+04 1.0000000000e+04 0.0000e+00 1.0000e+00
      -24  1    1    2    0    0 +9.8604065529e+03 -1.4635532922e+03 +1.8118191830e+02 9.9703964407e+03 7.9829010000e+01 0.0000e+00 1.0000e+00
       24  1    1    2    0    0 -8.8266233924e+03 +1.4534819503e+03 -2.6672339104e+02 8.9498270558e+03 7.9829010000e+01 0.0000e+00 1.0000e+00
       22  1    1    2    0    0 -1.3042944133e+02 -8.4974007641e+01 +7.2057790032e+01 1.7153642833e+02 0.0000000000e+00 0.0000e+00 -1.0000e+00
       22  1    1    2    0    0 -9.0335371916e+02 +9.5045349574e+01 +1.3483682709e+01 9.0844007512e+02 0.0000000000e+00 0.0000e+00 1.0000e+00
</event>
<event>
 6      1 +1.4834189e-01 1.00003700e+04 7.81653100e-03 6.93870300e-02
  1000022 -1    0    0    0    0 +0.0000000000e+00 +0.0000000000e+00 +4.4721471353e+01 1.0000100000e+04 1.0000000000e+04 0.0000e+00 -1.0000e+00
  1000022 -1    0    0    0    0 -0.0000000000e+00 -0.0000000000e+00 -4.4721471353e+01 1.0000100000e+04 1.0000000000e+04 0.0000e+00 -1.0000e+00
      -24  1    1    2    0    0 +1.1044879713e+03 +7.5873637050e+03 +6.3552869952e+03 9.9591177889e+03 7.9829010000e+01 0.0000e+00 1.0000e+00
       24  1    1    2    0    0 -1.0564620379e+03 -7.4088838447e+03 -6.1990211603e+03 9.7181226520e+03 7.9829010000e+01 0.0000e+00 1.0000e+00
       22  1    1    2    0    0 +1.5825075400e+00 +3.2058464585e+01 +2.5048440607e+01 4.0714541118e+01 0.0000000000e+00 0.0000e+00 1.0000e+00
       22  1    1    2    0    0 -4.9608440925e+01 -2.1053832488e+02 -1.8131427555e+02 2.8224501798e+02 0.0000000000e+00 0.0000e+00 -1.0000e+00
</event>
<event>
 6      1 +1.4834189e-01 1.03059900e+04 7.81653100e-03 6.92057400e-02
  1000022 -1    0    0    0    0 +0.0000000000e+00 +0.0000000000e+00 +4.4721471353e+01 1.0000100000e+04 1.0000000000e+04 0.0000e+00 1.0000e+00
  1000022 -1    0    0    0    0 -0.0000000000e+00 -0.0000000000e+00 -4.4721471353e+01 1.0000100000e+04 1.0000000000e+04 0.0000e+00 1.0000e+00
      -24  1    1    2    0    0 -2.1560998380e+03 -4.0107854143e+03 +6.5243403738e+03 7.9566674013e+03 7.9829010000e+01 0.0000e+00 -1.0000e+00
       24  1    1    2    0    0 +4.0660121166e+03 +4.9161517333e+03 -6.9742985217e+03 9.4524184703e+03 7.9829010000e+01 0.0000e+00 -1.0000e+00
       22  1    1    2    0    0 +1.0624714755e+02 +1.2405099758e+02 -1.7829203190e+02 2.4179568855e+02 0.0000000000e+00 0.0000e+00 1.0000e+00
       22  1    1    2    0    0 -2.0161594261e+03 -1.0294173167e+03 +6.2825017986e+02 2.3493184399e+03 0.0000000000e+00 0.0000e+00 1.0000e+00
</event>
<event>
 6      1 +1.4834189e-01 1.04379700e+04 7.81653100e-03 6.91294000e-02
  1000022 -1    0    0    0    0 +0.0000000000e+00 +0.0000000000e+00 +4.4721471353e+01 1.0000100000e+04 1.0000000000e+04 0.0000e+00 1.0000e+00
  1000022 -1    0    0    0    0 -0.0000000000e+00 -0.0000000000e+00 -4.4721471353e+01 1.0000100000e+04 1.0000000000e+04 0.0000e+00 1.0000e+00
      -24  1    1    2    0    0 +5.9895964613e+03 -1.5529359546e+03 +7.0559414591e+03 9.3850710383e+03 7.9829010000e+01 0.0000e+00 1.0000e+00
       24  1    1    2    0    0 -7.6816486413e+01 -2.9416295663e+01 -1.0874882849e+02 1.5800338468e+02 7.9829010000e+01 0.0000e+00 0.0000e+00
       22  1    1    2    0    0 -5.2576182917e+03 +2.2144361390e+03 -7.4761778947e+03 9.4042284866e+03 0.0000000000e+00 0.0000e+00 1.0000e+00
       22  1    1    2    0    0 -6.5516168315e+02 -6.3208388875e+02 +5.2898526406e+02 1.0528970904e+03 0.0000000000e+00 0.0000e+00 1.0000e+00
</event>
<event>
 6      1 +1.4834189e-01 1.00651000e+04 7.81653100e-03 6.93480900e-02
  1000022 -1    0    0    0    0 +0.0000000000e+00 +0.0000000000e+00 +4.4721471353e+01 1.0000100000e+04 1.0000000000e+04 0.0000e+00 1.0000e+00
  1000022 -1    0    0    0    0 -0.0000000000e+00 -0.0000000000e+00 -4.4721471353e+01 1.0000100000e+04 1.0000000000e+04 0.0000e+00 1.0000e+00
      -24  1    1    2    0    0 +3.5936727042e+03 +6.0299218831e+03 +5.4586367747e+03 8.8925547246e+03 7.9829010000e+01 0.0000e+00 -1.0000e+00
       24  1    1    2    0    0 -1.7600916508e+03 -1.7616087196e+03 -2.3509055260e+03 3.4255389887e+03 7.9829010000e+01 0.0000e+00 -1.0000e+00
       22  1    1    2    0    0 +1.0065951980e+03 +3.6063634569e+02 +4.8122188704e+02 1.1725472149e+03 0.0000000000e+00 0.0000e+00 1.0000e+00
       22  1    1    2    0    0 -2.8401762515e+03 -4.6289495092e+03 -3.5889531358e+03 6.5095590718e+03 0.0000000000e+00 0.0000e+00 -1.0000e+00
</event>
<event>
 6      1 +1.4834189e-01 1.00015600e+04 7.81653100e-03 6.93863200e-02
  1000022 -1    0    0    0    0 +0.0000000000e+00 +0.0000000000e+00 +4.4721471353e+01 1.0000100000e+04 1.0000000000e+04 0.0000e+00 1.0000e+00
  1000022 -1    0    0    0    0 -0.0000000000e+00 -0.0000000000e+00 -4.4721471353e+01 1.0000100000e+04 1.0000000000e+04 0.0000e+00 1.0000e+00
      -24  1    1    2    0    0 -6.5690826262e+03 -6.0995027258e+03 -4.4282872704e+03 9.9986439516e+03 7.9829010000e+01 0.0000e+00 1.0000e+00
       24  1    1    2    0    0 +6.4130808442e+03 +5.9629076810e+03 +4.3460953806e+03 9.7764406434e+03 7.9829010000e+01 0.0000e+00 1.0000e+00
       22  1    1    2    0    0 +1.0587550557e+01 +2.1421172942e+01 +1.2398201144e+01 2.6919848971e+01 0.0000000000e+00 0.0000e+00 1.0000e+00
       22  1    1    2    0    0 +1.4541423142e+02 +1.1517387180e+02 +6.9793688622e+01 1.9819555600e+02 0.0000000000e+00 0.0000e+00 -1.0000e+00
</event>
<event>
 6      1 +1.4834189e-01 1.11502700e+04 7.81653100e-03 6.87360600e-02
  1000022 -1    0    0    0    0 +0.0000000000e+00 +0.0000000000e+00 +4.4721471353e+01 1.0000100000e+04 1.0000000000e+04 0.0000e+00 1.0000e+00
  1000022 -1    0    0    0    0 -0.0000000000e+00 -0.0000000000e+00 -4.4721471353e+01 1.0000100000e+04 1.0000000000e+04 0.0000e+00 1.0000e+00
      -24  1    1    2    0    0 -1.2718748030e+03 -1.1088693158e+03 +8.6872067597e+03 8.8499260240e+03 7.9829010000e+01 0.0000e+00 -1.0000e+00
       24  1    1    2    0    0 +2.2882957480e+03 +2.7354344200e+03 -6.3607252535e+03 7.2927427843e+03 7.9829010000e+01 0.0000e+00 -1.0000e+00
       22  1    1    2    0    0 -1.3541826254e+03 -2.0576914250e+03 -1.5608863349e+03 2.9162082803e+03 0.0000000000e+00 0.0000e+00 -1.0000e+00
       22  1    1    2    0    0 +3.3776168039e+02 +4.3112632088e+02 -7.6559517123e+02 9.4132291139e+02 0.0000000000e+00 0.0000e+00 -1.0000e+00
</event>
<event>
 6      1 +1.4834189e-01 1.01801800e+04 7.81653100e-03 6.92796000e-02
  1000022 -1    0    0    0    0 +0.0000000000e+00 +0.0000000000e+00 +4.4721471353e+01 1.0000100000e+04 1.0000000000e+04 0.0000e+00 1.0000e+00
  1000022 -1    0    0    0    0 -0.0000000000e+00 -0.0000000000e+00 -4.4721471353e+01 1.0000100000e+04 1.0000000000e+04 0.0000e+00 1.0000e+00
      -24  1    1    2    0    0 +5.5242515762e+03 +5.9260542691e+03 -2.7879688107e+03 8.5682330406e+03 7.9829010000e+01 0.0000e+00 -1.0000e+00
       24  1    1    2    0    0 -5.5916828758e+03 -7.4960166028e+03 +2.7960995773e+03 9.7612359776e+03 7.9829010000e+01 0.0000e+00 -1.0000e+00
       22  1    1    2    0    0 -2.6157518450e+01 -3.8663698866e+01 +3.5733917212e+01 5.8787840756e+01 0.0000000000e+00 0.0000e+00 1.0000e+00
       22  1    1    2    0    0 +9.3588818006e+01 +1.6086260326e+03 -4.3864683833e+01 1.6119431411e+03 0.0000000000e+00 0.0000e+00 -1.0000e+00
</event>
<event>
 6      1 +1.4834189e-01 1.02259200e+04 7.81653100e-03 6.92526200e-02
  1000022 -1    0    0    0    0 +0.0000000000e+00 +0.0000000000e+00 +4.4721471353e+01 1.0000100000e+04 1.0000000000e+04 0.0000e+00 1.0000e+00
  1000022 -1    0    0    0    0 -0.0000000000e+00 -0.0000000000e+00 -4.4721471353e+01 1.0000100000e+04 1.0000000000e+04 0.0000e+00 1.0000e+00
      -24  1    1    2    0    0 +2.5314262393e+02 -5.6884067571e+03 +7.9440658656e+03 9.7742829799e+03 7.9829010000e+01 0.0000e+00 -1.0000e+00
       24  1    1    2    0    0 -5.7709133394e+02 +5.9393553000e+03 -7.5490162108e+03 9.6230449552e+03 7.9829010000e+01 0.0000e+00 -1.0000e+00
       22  1    1    2    0    0 -1.2991325315e+01 +1.9278596816e+01 -1.6060339019e+01 2.8255500668e+01 0.0000000000e+00 0.0000e+00 1.0000e+00
       22  1    1    2    0    0 +3.3694003533e+02 -2.7022713975e+02 -3.7898931582e+02 5.7461656430e+02 0.0000000000e+00 0.0000e+00 -1.0000e+00
</event>
<event>
 6      1 +1.4834189e-01 6.06083600e+03 7.81653100e-03 7.25506300e-02
  1000022 -1    0    0    0    0 +0.0000000000e+00 +0.0000000000e+00 +4.4721471353e+01 1.0000100000e+04 1.0000000000e+04 0.0000e+00 -1.0000e+00
  1000022 -1    0    0    0    0 -0.0000000000e+00 -0.0000000000e+00 -4.4721471353e+01 1.0000100000e+04 1.0000000000e+04 0.0000e+00 -1.0000e+00
      -24  1    1    2    0    0 +8.8696283845e+02 -5.2639047638e+03 +4.7900782782e+03 7.1726298539e+03 7.9829010000e+01 0.0000e+00 -1.0000e+00
       24  1    1    2    0    0 +2.1771638519e+03 +2.0872395038e+03 -5.5625245893e+03 6.3280853077e+03 7.9829010000e+01 0.0000e+00 -1.0000e+00
       22  1    1    2    0    0 -3.2283402661e+03 +4.0865613324e+03 -1.2717618214e+02 5.2094470127e+03 0.0000000000e+00 0.0000e+00 -1.0000e+00
       22  1    1    2    0    0 +1.6421357568e+02 -9.0989607244e+02 +8.9962249325e+02 1.2900378256e+03 0.0000000000e+00 0.0000e+00 1.0000e+00
</event>
<event>
 6      1 +1.4834189e-01 1.00016300e+04 7.81653100e-03 6.93862700e-02
  1000022 -1    0    0    0    0 +0.0000000000e+00 +0.0000000000e+00 +4.4721471353e+01 1.0000100000e+04 1.0000000000e+04 0.0000e+00 1.0000e+00
  1000022 -1    0    0    0    0 -0.0000000000e+00 -0.0000000000e+00 -4.4721471353e+01 1.0000100000e+04 1.0000000000e+04 0.0000e+00 1.0000e+00
      -24  1    1    2    0    0 -4.4214077216e+03 -5.2310028877e+03 -7.1109732384e+03 9.8734264833e+03 7.9829010000e+01 0.0000e+00 1.0000e+00
       24  1    1    2    0    0 +4.4655930217e+03 +5.2999229907e+03 +7.2065521087e+03 9.9985734337e+03 7.9829010000e+01 0.0000e+00 1.0000e+00
       22  1    1    2    0    0 -4.2852069257e+01 -4.7917322533e+01 -6.9123946640e+01 9.4395389916e+01 0.0000000000e+00 0.0000e+00 1.0000e+00
       22  1    1    2    0    0 -1.3332308713e+00 -2.1002780425e+01 -2.6454923660e+01 3.3804693106e+01 0.0000000000e+00 0.0000e+00 1.0000e+00
</event>
<event>
 6      1 +1.4834189e-01 1.00672400e+04 7.81653100e-03 6.93468100e-02
  1000022 -1    0    0    0    0 +0.0000000000e+00 +0.0000000000e+00 +4.4721471353e+01 1.0000100000e+04 1.0000000000e+04 0.0000e+00 -1.0000e+00
  1000022 -1    0    0    0    0 -0.0000000000e+00 -0.0000000000e+00 -4.4721471353e+01 1.0000100000e+04 1.0000000000e+04 0.0000e+00 -1.0000e+00
      -24  1    1    2    0    0 +5.1822546954e+03 -3.3088979373e+03 +7.8008139580e+03 9.9329572820e+03 7.9829010000e+01 0.0000e+00 1.0000e+00
       24  1    1    2    0    0 -3.1939274600e+02 +1.9966885477e+02 -5.0504097113e+02 6.3507356355e+02 7.9829010000e+01 0.0000e+00 0.0000e+00
       22  1    1    2    0    0 -4.9673727868e+03 +3.1292648251e+03 -7.1444486165e+03 9.2471745297e+03 0.0000000000e+00 0.0000e+00 1.0000e+00
       22  1    1    2    0    0 +1.0451083733e+02 -2.0035742617e+01 -1.5132437043e+02 1.8499462475e+02 0.0000000000e+00 0.0000e+00 -1.0000e+00
</event>
<event>
 6      1 +1.4834189e-01 1.00411300e+04 7.81653100e-03 6.93624800e-02
  1000022 -1    0    0    0    0 +0.0000000000e+00 +0.0000000000e+00 +4.4721471353e+01 1.0000100000e+04 1.0000000000e+04 0.0000e+00 1.0000e+00
  1000022 -1    0    0    0    0 -0.0000000000e+00 -0.0000000000e+00 -4.4721471353e+01 1.0000100000e+04 1.0000000000e+04 0.0000e+00 1.0000e+00
      -24  1    1    2    0    0 +7.9556314303e+03 +5.1603155244e+03 -2.9029151865e+03 9.9173694606e+03 7.9829010000e+01 0.0000e+00 -1.0000e+00
       24  1    1    2    0    0 -7.9854638715e+03 -5.0731796820e+03 +2.9718944288e+03 9.9168197773e+03 7.9829010000e+01 0.0000e+00 -1.0000e+00
       22  1    1    2    0    0 -2.9752639532e+00 -1.1017348907e+02 -5.7499568684e+01 1.2431110284e+02 0.0000000000e+00 0.0000e+00 -1.0000e+00
       22  1    1    2    0    0 +3.2807705121e+01 +2.3037646685e+01 -1.1479673564e+01 4.1699659294e+01 0.0000000000e+00 0.0000e+00 -1.0000e+00
</event>
<event>
 6      1 +1.4834189e-01 1.01097800e+04 7.81653100e-03 6.93213900e-02
  1000022 -1    0    0    0    0 +0.0000000000e+00 +0.0000000000e+00 +4.4721471353e+01 1.0000100000e+04 1.0000000000e+04 0.0000e+00 -1.0000e+00
  1000022 -1    0    0    0    0 -0.0000000000e+00 -0.0000000000e+00 -4.4721471353e+01 1.0000100000e+04 1.0000000000e+04 0.0000e+00 -1.0000e+00
      -24  1    1    2    0    0 +6.6874421100e+03 -5.6905084884e+03 +3.5944539881e+03 9.4884266859e+03 7.9829010000e+01 0.0000e+00 1.0000e+00
       24  1    1    2    0    0 -7.2853522139e+03 +5.5758687121e+03 -3.6942381742e+03 9.8904214842e+03 7.9829010000e+01 0.0000e+00 1.0000e+00
       22  1    1    2    0    0 +9.4909202667e+00 -6.9529449877e+00 +6.0623739716e+00 1.3235308447e+01 0.0000000000e+00 0.0000e+00 -1.0000e+00
       22  1    1    2    0    0 +5.8841918369e+02 +1.2159272127e+02 +9.3721812103e+01 6.0811652145e+02 0.0000000000e+00 0.0000e+00 1.0000e+00
</event>
<event>
 6      1 +1.4834189e-01 1.00143300e+04 7.81653100e-03 6.93786100e-02
  1000022 -1    0    0    0    0 +0.0000000000e+00 +0.0000000000e+00 +4.4721471353e+01 1.0000100000e+04 1.0000000000e+04 0.0000e+00 -1.0000e+00
  1000022 -1    0    0    0    0 -0.0000000000e+00 -0.0000000000e+00 -4.4721471353e+01 1.0000100000e+04 1.0000000000e+04 0.0000e+00 -1.0000e+00
      -24  1    1    2    0    0 +6.6975584486e+03 -7.0546229485e+02 +6.9329604604e+03 9.6657787911e+03 7.9829010000e+01 0.0000e+00 1.0000e+00
       24  1    1    2    0    0 -6.7646776301e+03 +6.7033605366e+02 -7.1077340155e+03 9.8354699618e+03 7.9829010000e+01 0.0000e+00 1.0000e+00
       22  1    1    2    0    0 -1.6405715262e+02 +5.4616985280e+01 -4.5759112794e+01 1.7886212794e+02 0.0000000000e+00 0.0000e+00 -1.0000e+00
       22  1    1    2    0    0 +2.3117633409e+02 -1.9490744090e+01 +2.2053266791e+02 3.2008911909e+02 0.0000000000e+00 0.0000e+00 -1.0000e+00
</event>
<event>
 6      1 +1.4834189e-01 1.08362000e+04 7.81653100e-03 6.89057400e-02
  1000022 -1    0    0    0    0 +0.0000000000e+00 +0.0000000000e+00 +4.4721471353e+01 1.0000100000e+04 1.0000000000e+04 0.0000e+00 1.0000e+00
  1000022 -1    0    0    0    0 -0.0000000000e+00 -0.0000000000e+00 -4.4721471353e+01 1.0000100000e+04 1.0000000000e+04 0.0000e+00 1.0000e+00
      -24  1    1    2    0    0 +8.2122279627e+03 -1.9480866435e+03 -1.7809663855e+03 8.6263516981e+03 7.9829010000e+01 0.0000e+00 -1.0000e+00
       24  1    1    2    0    0 -8.6873602085e+03 +3.5597509559e+02 +2.8940506844e+03 9.1639973645e+03 7.9829010000e+01 0.0000e+00 -1.0000e+00
       22  1    1    2    0    0 +2.8004173081e+02 -1.4825990921e+01 -8.8336877385e+01 2.9401800099e+02 0.0000000000e+00 0.0000e+00 -1.0000e+00
       22  1    1    2    0    0 +1.9509051502e+02 +1.6069375388e+03 -1.0247474215e+03 1.9158329365e+03 0.0000000000e+00 0.0000e+00 -1.0000e+00
</event>
<event>
 6      1 +1.4834189e-01 6.40069800e+03 7.81653100e-03 7.21918200e-02
  1000022 -1    0    0    0    0 +0.0000000000e+00 +0.0000000000e+00 +4.4721471353e+01 1.0000100000e+04 1.0000000000e+04 0.0000e+00 1.0000e+00
  1000022 -1    0    0    0    0 -0.0000000000e+00 -0.0000000000e+00 -4.4721471353e+01 1.0000100000e+04 1.0000000000e+04 0.0000e+00 1.0000e+00
      -24  1    1    2    0    0 +8.0113789746e+03 +6.9957168966e+02 +2.7876737661e+03 8.5117031973e+03 7.9829010000e+01 0.0000e+00 1.0000e+00
       24  1    1    2    0    0 -8.5925600402e+02 -6.8740159410e+02 -4.5805912076e+02 1.1945847232e+03 7.9829010000e+01 0.0000e+00 1.0000e+00
       22  1    1    2    0    0 -2.4042634775e+03 -2.8742270935e+03 -2.8754337792e+03 4.7233233716e+03 0.0000000000e+00 0.0000e+00 1.0000e+00
       22  1    1    2    0    0 -4.7478594930e+03 +2.8620569980e+03 +5.4581913384e+02 5.5705887078e+03 0.0000000000e+00 0.0000e+00 1.0000e+00
</event>
<event>
 6      1 +1.4834189e-01 1.00061700e+04 7.81653100e-03 6.93835300e-02
  1000022 -1    0    0    0    0 +0.0000000000e+00 +0.0000000000e+00 +4.4721471353e+01 1.0000100000e+04 1.0000000000e+04 0.0000e+00 -1.0000e+00
  1000022 -1    0    0    0    0 -0.0000000000e+00 -0.0000000000e+00 -4.4721471353e+01 1.0000100000e+04 1.0000000000e+04 0.0000e+00 -1.0000e+00
      -24  1    1    2    0    0 +2.7544716928e+03 +8.1688899747e+03 -4.7305455102e+03 9.8337333307e+03 7.9829010000e+01 0.0000e+00 1.0000e+00
       24  1    1    2    0    0 -1.0082795529e+03 -2.2182745955e+03 +1.2609674259e+03 2.7447734620e+03 7.9829010000e+01 0.0000e+00 1.0000e+00
       22  1    1    2    0    0 -1.7727345094e+03 -6.0637354575e+03 +3.5800038772e+03 7.2613981505e+03 0.0000000000e+00 0.0000e+00 1.0000e+00
       22  1    1    2    0    0 +2.6542369517e+01 +1.1312007829e+02 -1.1042579284e+02 1.6029505675e+02 0.0000000000e+00 0.0000e+00 -1.0000e+00
</event>
<event>
 6      1 +1.4834189e-01 1.00505200e+04 7.81653100e-03 6.93568400e-02
  1000022 -1    0    0    0    0 +0.0000000000e+00 +0.0000000000e+00 +4.4721471353e+01 1.0000100000e+04 1.0000000000e+04 0.0000e+00 -1.0000e+00
  1000022 -1    0    0    0    0 -0.0000000000e+00 -0.0000000000e+00 -4.4721471353e+01 1.0000100000e+04 1.0000000000e+04 0.0000e+00 -1.0000e+00
      -24  1    1    2    0    0 +9.1832871004e+03 -2.9221658755e+03 -2.4734341220e+03 9.9496765977e+03 7.9829010000e+01 0.0000e+00 -1.0000e+00
       24  1    1    2    0    0 -3.4532975549e+03 +1.5899314129e+03 +1.2514645343e+03 4.0032089693e+03 7.9829010000e+01 0.0000e+00 -1.0000e+00
       22  1    1    2    0    0 -1.3854904822e+02 -5.6373278610e+01 -2.7523799319e+01 1.5208992350e+02 0.0000000000e+00 0.0000e+00 -1.0000e+00
       22  1    1    2    0    0 -5.5914404972e+03 +1.3886077412e+03 +1.2494933871e+03 5.8952245095e+03 0.0000000000e+00 0.0000e+00 -1.0000e+00
</event>
<event>
 6      1 +1.4834189e-01 1.00002500e+04 7.81653100e-03 6.93871000e-02
  1000022 -1    0    0    0    0 +0.0000000000e+00 +0.0000000000e+00 +4.4721471353e+01 1.0000100000e+04 1.0000000000e+04 0.0000e+00 1.0000e+00
  1000022 -1    0    0    0    0 -0.0000000000e+00 -0.0000000000e+00 -4.4721471353e+01 1.0000100000e+04 1.0000000000e+04 0.0000e+00 1.0000e+00
      -24  1    1    2    0    0 +9.4880033934e+03 -1.8844122711e+03 +2.2980500571e+03 9.9428680338e+03 7.9829010000e+01 0.0000e+00 1.0000e+00
       24  1    1    2    0    0 -9.0191806524e+03 +1.8108540662e+03 -2.1908506286e+03 9.4567970919e+03 7.9829010000e+01 0.0000e+00 1.0000e+00
       22  1    1    2    0    0 -5.2380371134e+02 +7.8408941556e+01 -1.2175301054e+02 5.4345384873e+02 0.0000000000e+00 0.0000e+00 -1.0000e+00
       22  1    1    2    0    0 +5.4980970274e+01 -4.8507366562e+00 +1.4553582035e+01 5.7081025643e+01 0.0000000000e+00 0.0000e+00 1.0000e+00
</event>
<event>
 6      1 +1.4834189e-01 1.12038100e+04 7.81653100e-03 6.87077000e-02
  1000022 -1    0    0    0    0 +0.0000000000e+00 +0.0000000000e+00 +4.4721471353e+01 1.0000100000e+04 1.0000000000e+04 0.0000e+00 -1.0000e+00
  1000022 -1    0    0    0    0 -0.0000000000e+00 -0.0000000000e+00 -4.4721471353e+01 1.0000100000e+04 1.0000000000e+04 0.0000e+00 -1.0000e+00
      -24  1    1    2    0    0 +6.7895722154e+03 +2.5554880118e+03 +3.8612442170e+03 8.2185393727e+03 7.9829010000e+01 0.0000e+00 -1.0000e+00
       24  1    1    2    0    0 -6.0192174789e+03 +1.3145701619e+03 -2.1513447013e+03 6.5263872444e+03 7.9829010000e+01 0.0000e+00 -1.0000e+00
       22  1    1    2    0    0 +4.5803367439e+02 +1.6541367018e+02 +3.1106074976e+02 5.7785406393e+02 0.0000000000e+00 0.0000e+00 -1.0000e+00
       22  1    1    2    0    0 -1.2283884108e+03 -4.0354718439e+03 -2.0209602655e+03 4.6774193190e+03 0.0000000000e+00 0.0000e+00 -1.0000e+00
</event>
<event>
 6      1 +1.4834189e-01 1.01401300e+04 7.81653100e-03 6.93033300e-02
  1000022 -1    0    0    0    0 +0.0000000000e+00 +0.0000000000e+00 +4.4721471353e+01 1.0000100000e+04 1.0000000000e+04 0.0000e+00 -1.0000e+00
  1000022 -1    0    0    0    0 -0.0000000000e+00 -0.0000000000e+00 -4.4721471353e+01 1.0000100000e+04 1.0000000000e+04 0.0000e+00 -1.0000e+00
      -24  1    1    2    0    0 -8.8643446540e+03 -3.8101385227e+03 +1.3108803520e+03 9.7374812798e+03 7.9829010000e+01 0.0000e+00 1.0000e+00
       24  1    1    2    0    0 +8.3590202716e+03 +2.7829739660e+03 -1.1056987951e+03 8.8795893201e+03 7.9829010000e+01 0.0000e+00 1.0000e+00
       22  1    1    2    0    0 +6.1619961934e+02 +1.0777027611e+03 -2.1865168909e+02 1.2605370972e+03 0.0000000000e+00 0.0000e+00 1.0000e+00
       22  1    1    2    0    0 -1.1087523702e+02 -5.0538204328e+01 +1.3470132203e+01 1.2259230295e+02 0.0000000000e+00 0.0000e+00 1.0000e+00
</event>
<event>
 6      1 +1.4834189e-01 9.25911600e+03 7.81653100e-03 6.98552400e-02
  1000022 -1    0    0    0    0 +0.0000000000e+00 +0.0000000000e+00 +4.4721471353e+01 1.0000100000e+04 1.0000000000e+04 0.0000e+00 1.0000e+00
  1000022 -1    0    0    0    0 -0.0000000000e+00 -0.0000000000e+00 -4.4721471353e+01 1.0000100000e+04 1.0000000000e+04 0.0000e+00 1.0000e+00
      -24  1    1    2    0    0 -1.9981152229e+03 -4.7461336865e+03 -7.3483294657e+03 8.9734368010e+03 7.9829010000e+01 0.0000e+00 -1.0000e+00
       24  1    1    2    0    0 +1.0482599572e+03 +6.5091210091e+02 -7.1362762838e+02 1.4276458118e+03 7.9829010000e+01 0.0000e+00 -1.0000e+00
       22  1    1    2    0    0 +1.0117769823e+03 +4.2341973097e+03 +8.2673498731e+03 9.3435107665e+03 0.0000000000e+00 0.0000e+00 -1.0000e+00
       22  1    1    2    0    0 -6.1921716578e+01 -1.3897572416e+02 -2.0539277898e+02 2.5560662070e+02 0.0000000000e+00 0.0000e+00 -1.0000e+00
</event>
<event>
 6      1 +1.4834189e-01 1.06989900e+04 7.81653100e-03 6.89817000e-02
  1000022 -1    0    0    0    0 +0.0000000000e+00 +0.0000000000e+00 +4.4721471353e+01 1.0000100000e+04 1.0000000000e+04 0.0000e+00 -1.0000e+00
  1000022 -1    0    0    0    0 -0.0000000000e+00 -0.0000000000e+00 -4.4721471353e+01 1.0000100000e+04 1.0000000000e+04 0.0000e+00 -1.0000e+00
      -24  1    1    2    0    0 -4.5628878119e+02 -3.7368134748e+03 +8.2693330144e+03 9.0862652158e+03 7.9829010000e+01 0.0000e+00 1.0000e+00
       24  1    1    2    0    0 +1.4431114410e+03 +2.5769096381e+03 -8.6966992842e+03 9.1848780626e+03 7.9829010000e+01 0.0000e+00 1.0000e+00
       22  1    1    2    0    0 +1.6233102990e+01 +1.8830330585e+01 -1.1364882452e+02 1.1633636705e+02 0.0000000000e+00 0.0000e+00 1.0000e+00
       22  1    1    2    0    0 -1.0030557628e+03 +1.1410735062e+03 +5.4101509434e+02 1.6127203546e+03 0.0000000000e+00 0.0000e+00 1.0000e+00
</event>
<event>
 6      1 +1.4834189e-01 1.00141600e+04 7.81653100e-03 6.93787100e-02
  1000022 -1    0    0    0    0 +0.0000000000e+00 +0.0000000000e+00 +4.4721471353e+01 1.0000100000e+04 1.0000000000e+04 0.0000e+00 -1.0000e+00
  1000022 -1    0    0    0    0 -0.0000000000e+00 -0.0000000000e+00 -4.4721471353e+01 1.0000100000e+04 1.0000000000e+04 0.0000e+00 -1.0000e+00
      -24  1    1    2    0    0 +2.1936940676e+03 -1.3202793459e+03 +5.0037448977e+03 5.6213225211e+03 7.9829010000e+01 0.0000e+00 1.0000e+00
       24  1    1    2    0    0 -4.0475709213e+03 +2.4799266920e+03 -8.1599431494e+03 9.4405461511e+03 7.9829010000e+01 0.0000e+00 1.0000e+00
       22  1    1    2    0    0 +1.9113559146e+03 -1.4565174859e+03 +3.6436334616e+03 4.3647210016e+03 0.0000000000e+00 0.0000e+00 1.0000e+00
       22  1    1    2    0    0 -5.7479060907e+01 +2.9687013986e+02 -4.8743521000e+02 5.7361032621e+02 0.0000000000e+00 0.0000e+00 1.0000e+00
</event>
<event>
 6      1 +1.4834189e-01 1.00171500e+04 7.81653100e-03 6.93769100e-02
  1000022 -1    0    0    0    0 +0.0000000000e+00 +0.0000000000e+00 +4.4721471353e+01 1.0000100000e+04 1.0000000000e+04 0.0000e+00 -1.0000e+00
  1000022 -1    0    0    0    0 -0.0000000000e+00 -0.0000000000e+00 -4.4721471353e+01 1.0000100000e+04 1.0000000000e+04 0.0000e+00 -1.0000e+00
      -24  1    1    2    0    0 -8.2367559859e+03 +2.8704497061e+03 +1.2405620994e+03 8.8107319605e+03 7.9829010000e+01 0.0000e+00 1.0000e+00
       24  1    1    2    0    0 +8.6142302835e+03 -3.1991177056e+03 -1.5036459718e+03 9.3116401000e+03 7.9829010000e+01 0.0000e+00 1.0000e+00
       22  1    1    2    0    0 -9.9674473216e+02 +5.1490434946e+02 +4.4365370484e+02 1.2064224633e+03 0.0000000000e+00 0.0000e+00 -1.0000e+00
       22  1    1    2    0    0 +6.1927043449e+02 -1.8623634998e+02 -1.8056983244e+02 6.7140547621e+02 0.0000000000e+00 0.0000e+00 -1.0000e+00
</event>
<event>
 6      1 +1.4834189e-01 1.00115100e+04 7.81653100e-03 6.93803100e-02
  1000022 -1    0    0    0    0 +0.0000000000e+00 +0.0000000000e+00 +4.4721471353e+01 1.0000100000e+04 1.0000000000e+04 0.0000e+00 1.0000e+00
  1000022 -1    0    0    0    0 -0.0000000000e+00 -0.0000000000e+00 -4.4721471353e+01 1.0000100000e+04 1.0000000000e+04 0.0000e+00 1.0000e+00
      -24  1    1    2    0    0 +9.4010604277e+03 -2.5804178479e+03 +1.1328949263e+03 9.8146990285e+03 7.9829010000e+01 0.0000e+00 1.0000e+00
       24  1    1    2    0    0 -9.1367460068e+03 +2.3668893447e+03 -1.0232752106e+03 9.4939853376e+03 7.9829010000e+01 0.0000e+00 1.0000e+00
       22  1    1    2    0    0 -4.5291585901e+02 +1.5834201746e+02 -1.2052638050e+02 4.9470352559e+02 0.0000000000e+00 0.0000e+00 -1.0000e+00
       22  1    1    2    0    0 +1.8860143808e+02 +5.5186485707e+01 +1.0906664776e+01 1.9681210834e+02 0.0000000000e+00 0.0000e+00 1.0000e+00
</event>
<event>
 6      1 +1.4834189e-01 1.00008600e+04 7.81653100e-03 6.93867300e-02
  1000022 -1    0    0    0    0 +0.0000000000e+00 +0.0000000000e+00 +4.4721471353e+01 1.0000100000e+04 1.0000000000e+04 0.0000e+00 1.0000e+00
  1000022 -1    0    0    0    0 -0.0000000000e+00 -0.0000000000e+00 -4.4721471353e+01 1.0000100000e+04 1.0000000000e+04 0.0000e+00 1.0000e+00
      -24  1    1    2    0    0 +4.5187090110e+03 -7.9579249578e+03 -3.9276074316e+03 9.9589042353e+03 7.9829010000e+01 0.0000e+00 1.0000e+00
       24  1    1    2    0    0 -6.4585795695e+02 +1.2929501400e+03 +5.7683793700e+02 1.5581935828e+03 7.9829010000e+01 0.0000e+00 -1.0000e+00
       22  1    1    2    0    0 +2.9388500686e+01 -2.7149397607e+01 -5.8208406274e+00 4.0430878652e+01 0.0000000000e+00 0.0000e+00 1.0000e+00
       22  1    1    2    0    0 -3.9022395547e+03 +6.6921242154e+03 +3.3565903352e+03 8.4426713033e+03 0.0000000000e+00 0.0000e+00 1.0000e+00
</event>
<event>
 6      1 +1.4834189e-01 1.00109200e+04 7.81653100e-03 6.93806700e-02
  1000022 -1    0    0    0    0 +0.0000000000e+00 +0.0000000000e+00 +4.4721471353e+01 1.0000100000e+04 1.0000000000e+04 0.0000e+00 -1.0000e+00
  1000022 -1    0    0    0    0 -0.0000000000e+00 -0.0000000000e+00 -4.4721471353e+01 1.0000100000e+04 1.0000000000e+04 0.0000e+00 -1.0000e+00
      -24  1    1    2    0    0 +5.6850913888e+03 +2.4560554883e+03 +7.4186367049e+03 9.6641096791e+03 7.9829010000e+01 0.0000e+00 -1.0000e+00
       24  1    1    2    0    0 -1.6448141968e+02 -1.7140524047e+02 -2.5357661874e+02 3.5652162107e+02 7.9829010000e+01 0.0000e+00 1.0000e+00
       22  1    1    2    0    0 +1.8934335076e+02 +8.1474109020e+01 +2.5149232129e+02 3.2517275806e+02 0.0000000000e+00 0.0000e+00 1.0000e+00
       22  1    1    2    0    0 -5.7099533199e+03 -2.3661243568e+03 -7.4165524074e+03 9.6543959417e+03 0.0000000000e+00 0.0000e+00 -1.0000e+00
</event>
<event>
 6      1 +1.4834189e-01 1.00971300e+04 7.81653100e-03 6.93289400e-02
  1000022 -1    0    0    0    0 +0.0000000000e+00 +0.0000000000e+00 +4.4721471353e+01 1.0000100000e+04 1.0000000000e+04 0.0000e+00 1.0000e+00
  1000022 -1    0    0    0    0 -0.0000000000e+00 -0.0000000000e+00 -4.4721471353e+01 1.0000100000e+04 1.0000000000e+04 0.0000e+00 1.0000e+00
      -24  1    1    2    0    0 +1.7314172502e+03 +8.2914539926e+03 +5.1301566010e+03 9.9030749985e+03 7.9829010000e+01 0.0000e+00 -1.0000e+00
       24  1    1    2    0    0 -2.0172283456e+03 -7.6445930173e+03 -4.3485040704e+03 9.0235731792e+03 7.9829010000e+01 0.0000e+00 -1.0000e+00
       22  1    1    2    0    0 -1.6389390355e+01 -8.6225854892e+01 -4.1465671828e+01 9.7071685409e+01 0.0000000000e+00 0.0000e+00 -1.0000e+00
       22  1    1    2    0    0 +3.0220048582e+02 -5.6063512036e+02 -7.4018685876e+02 9.7648013687e+02 0.0000000000e+00 0.0000e+00 1.0000e+00
</event>
<event>
 6      1 +1.4834189e-01 1.00534100e+04 7.81653100e-03 6.93551100e-02
  1000022 -1    0    0    0    0 +0.0000000000e+00 +0.0000000000e+00 +4.4721471353e+01 1.0000100000e+04 1.0000000000e+04 0.0000e+00 1.0000e+00
  1000022 -1    0    0    0    0 -0.0000000000e+00 -0.0000000000e+00 -4.4721471353e+01 1.0000100000e+04 1.0000000000e+04 0.0000e+00 1.0000e+00
      -24  1    1    2    0    0 +6.7484778618e+03 -6.5501010044e+03 -3.2382983834e+03 9.9467947456e+03 7.9829010000e+01 0.0000e+00 1.0000e+00
       24  1    1    2    0    0 -4.4625442140e+03 +3.5592132831e+03 +2.0778396846e+03 6.0750383112e+03 7.9829010000e+01 0.0000e+00 1.0000e+00
       22  1    1    2    0    0 -3.4969497083e+02 +2.2554541416e+02 +2.3543990529e+02 4.7811008720e+02 0.0000000000e+00 0.0000e+00 -1.0000e+00
       22  1    1    2    0    0 -1.9362386769e+03 +2.7653423072e+03 +9.2501879352e+02 3.5002568561e+03 0.0000000000e+00 0.0000e+00 1.0000e+00
</event>
<event>
 6      1 +1.4834189e-01 1.00089600e+04 7.81653100e-03 6.93818500e-02
  1000022 -1    0    0    0    0 +0.0000000000e+00 +0.0000000000e+00 +4.4721471353e+01 1.0000100000e+04 1.0000000000e+04 0.0000e+00 -1.0000e+00
  1000022 -1    0    0    0    0 -0.0000000000e+00 -0.0000000000e+00 -4.4721471353e+01 1.0000100000e+04 1.0000000000e+04 0.0000e+00 -1.0000e+00
      -24  1    1    2    0    0 +8.0627674362e+03 +3.0509126948e+03 -1.5801092756e+03 8.7646679911e+03 7.9829010000e+01 0.0000e+00 -1.0000e+00
       24  1    1    2    0    0 -9.0855791463e+03 -3.4499401570e+03 +2.0440593165e+03 9.9314846156e+03 7.9829010000e+01 0.0000e+00 -1.0000e+00
       22  1    1    2    0    0 +1.0788359775e+03 +4.1869692479e+02 -4.5724246678e+02 1.2442929135e+03 0.0000000000e+00 0.0000e+00 -1.0000e+00
       22  1    1    2    0    0 -5.6024267395e+01 -1.9669462567e+01 -6.7075741244e+00 5.9754479711e+01 0.0000000000e+00 0.0000e+00 -1.0000e+00
</event>
<event>
 6      1 +1.4834189e-01 1.00072200e+04 7.81653100e-03 6.93829000e-02
  1000022 -1    0    0    0    0 +0.0000000000e+00 +0.0000000000e+00 +4.4721471353e+01 1.0000100000e+04 1.0000000000e+04 0.0000e+00 1.0000e+00
  1000022 -1    0    0    0    0 -0.0000000000e+00 -0.0000000000e+00 -4.4721471353e+01 1.0000100000e+04 1.0000000000e+04 0.0000e+00 1.0000e+00
      -24  1    1    2    0    0 +8.1241976638e+03 -5.6924603040e+03 -8.2832620212e+02 9.9548575561e+03 7.9829010000e+01 0.0000e+00 -1.0000e+00
       24  1    1    2    0    0 -5.3873769799e+03 +3.9840313746e+03 +4.8394424307e+02 6.7184009569e+03 7.9829010000e+01 0.0000e+00 -1.0000e+00
       22  1    1    2    0    0 -2.7590851195e+03 +1.7367931496e+03 +3.0641911958e+02 3.2745829991e+03 0.0000000000e+00 0.0000e+00 -1.0000e+00
       22  1    1    2    0    0 +2.2264435591e+01 -2.8364220128e+01 +3.7962839465e+01 5.2358487907e+01 0.0000000000e+00 0.0000e+00 -1.0000e+00
</event>
<event>
 6      1 +1.4834189e-01 1.00211500e+04 7.81653100e-03 6.93745000e-02
  1000022 -1    0    0    0    0 +0.0000000000e+00 +0.0000000000e+00 +4.4721471353e+01 1.0000100000e+04 1.0000000000e+04 0.0000e+00 1.0000e+00
  1000022 -1    0    0    0    0 -0.0000000000e+00 -0.0000000000e+00 -4.4721471353e+01 1.0000100000e+04 1.0000000000e+04 0.0000e+00 1.0000e+00
      -24  1    1    2    0    0 -9.5055346501e+02 -6.9277294634e+03 -6.6224652895e+03 9.6312204102e+03 7.9829010000e+01 0.0000e+00 -1.0000e+00
       24  1    1    2    0    0 +9.6506251022e+02 +5.1676939312e+03 +5.3968824791e+03 7.5345284776e+03 7.9829010000e+01 0.0000e+00 -1.0000e+00
       22  1    1    2    0    0 +1.1967191307e+01 +2.0040988122e+03 +1.4719875632e+03 2.4866247504e+03 0.0000000000e+00 0.0000e+00 -1.0000e+00
       22  1    1    2    0    0 -2.6476236513e+01 -2.4406328003e+02 -2.4640475286e+02 3.4782636185e+02 0.0000000000e+00 0.0000e+00 -1.0000e+00
</event>
<event>
 6      1 +1.4834189e-01 1.02188900e+04 7.81653100e-03 6.92567600e-02
  1000022 -1    0    0    0    0 +0.0000000000e+00 +0.0000000000e+00 +4.4721471353e+01 1.0000100000e+04 1.0000000000e+04 0.0000e+00 -1.0000e+00
  1000022 -1    0    0    0    0 -0.0000000000e+00 -0.0000000000e+00 -4.4721471353e+01 1.0000100000e+04 1.0000000000e+04 0.0000e+00 -1.0000e+00
      -24  1    1    2    0    0 -2.3017693090e+03 +7.1048869320e+03 -2.7927475090e+03 7.9739182080e+03 7.9829010000e+01 0.0000e+00 1.0000e+00
       24  1    1    2    0    0 +2.2543290104e+03 -8.8435702933e+03 +3.5180761302e+03 9.7813070265e+03 7.9829010000e+01 0.0000e+00 1.0000e+00
       22  1    1    2    0    0 +4.6217788479e+02 +1.5499377446e+02 -1.6474621184e+02 5.1456076573e+02 0.0000000000e+00 0.0000e+00 -1.0000e+00
       22  1    1    2    0    0 -4.1473758615e+02 +1.5836895868e+03 -5.6058240935e+02 1.7304139997e+03 0.0000000000e+00 0.0000e+00 1.0000e+00
</event>
<event>
 6      1 +1.4834189e-01 1.00061300e+04 7.81653100e-03 6.93835500e-02
  1000022 -1    0    0    0    0 +0.0000000000e+00 +0.0000000000e+00 +4.4721471353e+01 1.0000100000e+04 1.0000000000e+04 0.0000e+00 1.0000e+00
  1000022 -1    0    0    0    0 -0.0000000000e+00 -0.0000000000e+00 -4.4721471353e+01 1.0000100000e+04 1.0000000000e+04 0.0000e+00 1.0000e+00
      -24  1    1    2    0    0 -3.2662934294e+03 -2.5897351288e+03 -9.0829308013e+03 9.9940685117e+03 7.9829010000e+01 0.0000e+00 -1.0000e+00
       24  1    1    2    0    0 +2.9033898701e+03 +2.2567854359e+03 +8.1978521649e+03 8.9852048407e+03 7.9829010000e+01 0.0000e+00 -1.0000e+00
       22  1    1    2    0    0 +1.8274793239e+02 +1.8674099090e+02 +3.4220625096e+02 4.3055095247e+02 0.0000000000e+00 0.0000e+00 -1.0000e+00
       22  1    1    2    0    0 +1.8015562698e+02 +1.4620870201e+02 +5.4287238549e+02 5.9037569513e+02 0.0000000000e+00 0.0000e+00 -1.0000e+00
</event>
<event>
 6      1 +1.4834189e-01 1.00016300e+04 7.81653100e-03 6.93862700e-02
  1000022 -1    0    0    0    0 +0.0000000000e+00 +0.0000000000e+00 +4.4721471353e+01 1.0000100000e+04 1.0000000000e+04 0.0000e+00 1.0000e+00
  1000022 -1    0    0    0    0 -0.0000000000e+00 -0.0000000000e+00 -4.4721471353e+01 1.0000100000e+04 1.0000000000e+04 0.0000e+00 1.0000e+00
      -24  1    1    2    0    0 +8.6581679519e+03 +3.9633081826e+03 -2.7784159254e+03 9.9195590506e+03 7.9829010000e+01 0.0000e+00 1.0000e+00
       24  1    1    2    0    0 -8.6255585088e+03 -3.9500344378e+03 +2.7964207881e+03 9.8908732448e+03 7.9829010000e+01 0.0000e+00 1.0000e+00
       22  1    1    2    0    0 -1.0109698197e+02 -4.4888029254e+01 +5.5210298091e+00 1.1075205057e+02 0.0000000000e+00 0.0000e+00 1.0000e+00
       22  1    1    2    0    0 +6.8487538904e+01 +3.1614284421e+01 -2.3525892508e+01 7.9015654037e+01 0.0000000000e+00 0.0000e+00 -1.0000e+00
</event>
<event>
 6      1 +1.4834189e-01 1.03902600e+04 7.81653100e-03 6.91568600e-02
  1000022 -1    0    0    0    0 +0.0000000000e+00 +0.0000000000e+00 +4.4721471353e+01 1.0000100000e+04 1.0000000000e+04 0.0000e+00 -1.0000e+00
  1000022 -1    0    0    0    0 -0.0000000000e+00 -0.0000000000e+00 -4.4721471353e+01 1.0000100000e+04 1.0000000000e+04 0.0000e+00 -1.0000e+00
      -24  1    1    2    0    0 +3.8333972429e+03 +1.8525557615e+03 +1.6643109179e+03 4.5720018343e+03 7.9829010000e+01 0.0000e+00 1.0000e+00
       24  1    1    2    0    0 -6.3584113697e+03 -1.9742937108e+03 -6.8267783372e+03 9.5361683049e+03 7.9829010000e+01 0.0000e+00 1.0000e+00
       22  1    1    2    0    0 +2.5504158361e+03 +1.4569099182e+02 +5.2274543344e+03 5.8182579541e+03 0.0000000000e+00 0.0000e+00 1.0000e+00
       22  1    1    2    0    0 -2.5401709270e+01 -2.3953042520e+01 -6.4986915094e+01 7.3771906667e+01 0.0000000000e+00 0.0000e+00 -1.0000e+00
</event>
<event>
 6      1 +1.4834189e-01 1.00105800e+04 7.81653100e-03 6.93808700e-02
  1000022 -1    0    0    0    0 +0.0000000000e+00 +0.0000000000e+00 +4.4721471353e+01 1.0000100000e+04 1.0000000000e+04 0.0000e+00 1.0000e+00
  1000022 -1    0    0    0    0 -0.0000000000e+00 -0.0000000000e+00 -4.4721471353e+01 1.0000100000e+04 1.0000000000e+04 0.0000e+00 1.0000e+00
      -24  1    1    2    0    0 +2.3141940778e+03 +7.3900920780e+03 +5.4392161006e+03 9.4636356444e+03 7.9829010000e+01 0.0000e+00 -1.0000e+00
       24  1    1    2    0    0 -2.4533961340e+03 -7.7909194297e+03 -5.7505240132e+03 9.9896184736e+03 7.9829010000e+01 0.0000e+00 -1.0000e+00
       22  1    1    2    0    0 +1.1568790177e+02 +4.0850484725e+02 +2.8863153543e+02 5.1338880401e+02 0.0000000000e+00 0.0000e+00 -1.0000e+00
       22  1    1    2    0    0 +2.3514154488e+01 -7.6774955763e+00 +2.2676377242e+01 3.3557078008e+01 0.0000000000e+00 0.0000e+00 -1.0000e+00
</event>
<event>
 6      1 +1.4834189e-01 1.00001600e+04 7.81653100e-03 6.93871600e-02
  1000022 -1    0    0    0    0 +0.0000000000e+00 +0.0000000000e+00 +4.4721471353e+01 1.0000100000e+04 1.0000000000e+04 0.0000e+00 1.0000e+00
  1000022 -1    0    0    0    0 -0.0000000000e+00 -0.0000000000e+00 -4.4721471353e+01 1.0000100000e+04 1.0000000000e+04 0.0000e+00 1.0000e+00
      -24  1    1    2    0    0 +1.0237530571e+02 +7.6409637011e+03 -5.4579823862e+03 9.3909930990e+03 7.9829010000e+01 0.0000e+00 -1.0000e+00
       24  1    1    2    0    0 -1.1116477614e+02 -8.1287133459e+03 +5.7965691493e+03 9.9847345904e+03 7.9829010000e+01 0.0000e+00 -1.0000e+00
       22  1    1    2    0    0 +2.1752212507e+00 -1.2286044554e+01 +9.0653658115e+00 1.5422688986e+01 0.0000000000e+00 0.0000e+00 -1.0000e+00
       22  1    1    2    0    0 +6.6142491755e+00 +5.0003568935e+02 -3.4765212886e+02 6.0904962163e+02 0.0000000000e+00 0.0000e+00 -1.0000e+00
</event>
<event>
 6      1 +1.4834189e-01 1.00054600e+04 7.81653100e-03 6.93839600e-02
  1000022 -1    0    0    0    0 +0.0000000000e+00 +0.0000000000e+00 +4.4721471353e+01 1.0000100000e+04 1.0000000000e+04 0.0000e+00 -1.0000e+00
  1000022 -1    0    0    0    0 -0.0000000000e+00 -0.0000000000e+00 -4.4721471353e+01 1.0000100000e+04 1.0000000000e+04 0.0000e+00 -1.0000e+00
      -24  1    1    2    0    0 +2.6342281367e+03 -1.9873251543e+03 -6.6996060117e+03 7.4685816945e+03 7.9829010000e+01 0.0000e+00 -1.0000e+00
       24  1    1    2    0    0 -3.1192872403e+03 +2.5750551068e+03 +8.0022413016e+03 8.9667775823e+03 7.9829010000e+01 0.0000e+00 -1.0000e+00
       22  1    1    2    0    0 +8.1593574012e+02 -1.0138363330e+03 -2.1776501653e+03 2.5368830254e+03 0.0000000000e+00 0.0000e+00 -1.0000e+00
       22  1    1    2    0    0 -3.3087663649e+02 +4.2610638056e+02 +8.7501487543e+02 1.0279576978e+03 0.0000000000e+00 0.0000e+00 -1.0000e+00
</event>
<event>
 6      1 +1.4834189e-01 1.00162700e+04 7.81653100e-03 6.93774400e-02
  1000022 -1    0    0    0    0 +0.0000000000e+00 +0.0000000000e+00 +4.4721471353e+01 1.0000100000e+04 1.0000000000e+04 0.0000e+00 -1.0000e+00
  1000022 -1    0    0    0    0 -0.0000000000e+00 -0.0000000000e+00 -4.4721471353e+01 1.0000100000e+04 1.0000000000e+04 0.0000e+00 -1.0000e+00
      -24  1    1    2    0    0 -2.6519204160e+02 +4.3915565437e+02 +9.8685223528e+02 1.1150939480e+03 7.9829010000e+01 0.0000e+00 1.0000e+00
       24  1    1    2    0    0 +1.3271161617e+03 -1.9255963790e+03 -9.4792372932e+03 9.7637836443e+03 7.9829010000e+01 0.0000e+00 1.0000e+00
       22  1    1    2    0    0 +6.7228980553e+01 -6.3574515741e+01 -1.9975914053e+02 2.2014806178e+02 0.0000000000e+00 0.0000e+00 1.0000e+00
       22  1    1    2    0    0 -1.1291531006e+03 +1.5500152404e+03 +8.6921441985e+03 8.9011743459e+03 0.0000000000e+00 0.0000e+00 1.0000e+00
</event>
<event>
 6      1 +1.4834189e-01 6.16221000e+03 7.81653100e-03 7.24411600e-02
  1000022 -1    0    0    0    0 +0.0000000000e+00 +0.0000000000e+00 +4.4721471353e+01 1.0000100000e+04 1.0000000000e+04 0.0000e+00 -1.0000e+00
  1000022 -1    0    0    0    0 -0.0000000000e+00 -0.0000000000e+00 -4.4721471353e+01 1.0000100000e+04 1.0000000000e+04 0.0000e+00 -1.0000e+00
      -24  1    1    2    0    0 -2.6819336695e+03 +5.0389677622e+03 +2.4392254566e+03 6.2080719886e+03 7.9829010000e+01 0.0000e+00 1.0000e+00
       24  1    1    2    0    0 -1.6299371693e+03 -8.0638080789e+03 -1.8526382952e+03 8.4332874511e+03 7.9829010000e+01 0.0000e+00 1.0000e+00
       22  1    1    2    0    0 +4.3312274810e+03 +3.0474771461e+03 -5.9079538068e+02 5.3287604215e+03 0.0000000000e+00 0.0000e+00 1.0000e+00
       22  1    1    2    0    0 -1.9356642264e+01 -2.2636829361e+01 +4.2082191804e+00 3.0080138828e+01 0.0000000000e+00 0.0000e+00 1.0000e+00
</event>
<event>
 6      1 +1.4834189e-01 1.00040900e+04 7.81653100e-03 6.93847900e-02
  1000022 -1    0    0    0    0 +0.0000000000e+00 +0.0000000000e+00 +4.4721471353e+01 1.0000100000e+04 1.0000000000e+04 0.0000e+00 -1.0000e+00
  1000022 -1    0    0    0    0 -0.0000000000e+00 -0.0000000000e+00 -4.4721471353e+01 1.0000100000e+04 1.0000000000e+04 0.0000e+00 -1.0000e+00
      -24  1    1    2    0    0 -9.6985106431e+03 -1.8582055290e+03 -1.1822350369e+03 9.9457573284e+03 7.9829010000e+01 0.0000e+00 -1.0000e+00
       24  1    1    2    0    0 +2.5328257151e+02 +7.6723431538e+01 +7.6582912399e+01 2.8683821099e+02 7.9829010000e+01 0.0000e+00 0.0000e+00
       22  1    1    2    0    0 +9.4858562138e+03 +1.7763426142e+03 +1.1349502238e+03 9.7172513193e+03 0.0000000000e+00 0.0000e+00 -1.0000e+00
       22  1    1    2    0    0 -4.0628142194e+01 +5.1394832592e+00 -2.9298099217e+01 5.0353141352e+01 0.0000000000e+00 0.0000e+00 1.0000e+00
</event>
<event>
 6      1 +1.4834189e-01 1.00016200e+04 7.81653100e-03 6.93862800e-02
  1000022 -1    0    0    0    0 +0.0000000000e+00 +0.0000000000e+00 +4.4721471353e+01 1.0000100000e+04 1.0000000000e+04 0.0000e+00 -1.0000e+00
  1000022 -1    0    0    0    0 -0.0000000000e+00 -0.0000000000e+00 -4.4721471353e+01 1.0000100000e+04 1.0000000000e+04 0.0000e+00 -1.0000e+00
      -24  1    1    2    0    0 -2.8432039427e+03 +4.9165022851e+03 +8.1749807339e+03 9.9545208850e+03 7.9829010000e+01 0.0000e+00 1.0000e+00
       24  1    1    2    0    0 +2.8571823637e+03 -4.9094434126e+03 -8.1846448469e+03 9.9629769458e+03 7.9829010000e+01 0.0000e+00 1.0000e+00
       22  1    1    2    0    0 -2.3778463427e+01 +9.8063396073e+00 +3.9451998225e+01 4.7096069724e+01 0.0000000000e+00 0.0000e+00 1.0000e+00
       22  1    1    2    0    0 +9.8000423759e+00 -1.6865212114e+01 -2.9787885237e+01 3.5606099437e+01 0.0000000000e+00 0.0000e+00 -1.0000e+00
</event>
<event>
 6      1 +1.4834189e-01 1.00268000e+04 7.81653100e-03 6.93711000e-02
  1000022 -1    0    0    0    0 +0.0000000000e+00 +0.0000000000e+00 +4.4721471353e+01 1.0000100000e+04 1.0000000000e+04 0.0000e+00 -1.0000e+00
  1000022 -1    0    0    0    0 -0.0000000000e+00 -0.0000000000e+00 -4.4721471353e+01 1.0000100000e+04 1.0000000000e+04 0.0000e+00 -1.0000e+00
      -24  1    1    2    0    0 +5.9828118331e+03 -1.4434087766e+02 +7.9779380457e+03 9.9734016188e+03 7.9829010000e+01 0.0000e+00 -1.0000e+00
       24  1    1    2    0    0 -5.8173941962e+03 +2.3573038680e+01 -7.7115991916e+03 9.6601120948e+03 7.9829010000e+01 0.0000e+00 -1.0000e+00
       22  1    1    2    0    0 -4.9928310321e+01 -2.2621414575e+00 +1.6387506163e+00 5.0006389183e+01 0.0000000000e+00 0.0000e+00 1.0000e+00
       22  1    1    2    0    0 -1.1548932660e+02 +1.2302998044e+02 -2.6797760468e+02 3.1667989714e+02 0.0000000000e+00 0.0000e+00 1.0000e+00
</event>
<event>
 6      1 +1.4834189e-01 1.03151000e+04 7.81653100e-03 6.92004300e-02
  1000022 -1    0    0    0    0 +0.0000000000e+00 +0.0000000000e+00 +4.4721471353e+01 1.0000100000e+04 1.0000000000e+04 0.0000e+00 1.0000e+00
  1000022 -1    0    0    0    0 -0.0000000000e+00 -0.0000000000e+00 -4.4721471353e+01 1.0000100000e+04 1.0000000000e+04 0.0000e+00 1.0000e+00
      -24  1    1    2    0    0 +7.3774200241e+03 +4.6909712964e+03 +3.7098885707e+03 9.4974303784e+03 7.9829010000e+01 0.0000e+00 -1.0000e+00
       24  1    1    2    0    0 -6.6703782567e+03 -5.0968835480e+03 -4.1087044675e+03 9.3466567852e+03 7.9829010000e+01 0.0000e+00 -1.0000e+00
       22  1    1    2    0    0 -8.5519217186e+02 +3.1669894110e+02 +3.2593099279e+02 9.6844353587e+02 0.0000000000e+00 0.0000e+00 -1.0000e+00
       22  1    1    2    0    0 +1.4815040445e+02 +8.9213310484e+01 +7.2884904096e+01 1.8766930050e+02 0.0000000000e+00 0.0000e+00 -1.0000e+00
</event>
<event>
 6      1 +1.4834189e-01 1.00098100e+04 7.81653100e-03 6.93813300e-02
  1000022 -1    0    0    0    0 +0.0000000000e+00 +0.0000000000e+00 +4.4721471353e+01 1.0000100000e+04 1.0000000000e+04 0.0000e+00 -1.0000e+00
  1000022 -1    0    0    0    0 -0.0000000000e+00 -0.0000000000e+00 -4.4721471353e+01 1.0000100000e+04 1.0000000000e+04 0.0000e+00 -1.0000e+00
      -24  1    1    2    0    0 +6.1137105257e+02 -2.2833807924e+02 +1.0453085970e+03 1.2348909167e+03 7.9829010000e+01 0.0000e+00 -1.0000e+00
       24  1    1    2    0    0 -5.3776759170e+03 +5.2471052848e+02 -8.4027796822e+03 9.9903853012e+03 7.9829010000e+01 0.0000e+00 -1.0000e+00
       22  1    1    2    0    0 +4.3532274868e+01 -2.5819504249e+01 +6.2546149715e+01 8.0459471779e+01 0.0000000000e+00 0.0000e+00 1.0000e+00
       22  1    1    2    0    0 +4.7227725896e+03 -2.7055294500e+02 +7.2949249356e+03 8.6944643104e+03 0.0000000000e+00 0.0000e+00 -1.0000e+00
</event>
<event>
 6      1 +1.4834189e-01 1.01398000e+04 7.81653100e-03 6.93035300e-02
  1000022 -1    0    0    0    0 +0.0000000000e+00 +0.0000000000e+00 +4.4721471353e+01 1.0000100000e+04 1.0000000000e+04 0.0000e+00 -1.0000e+00
  1000022 -1    0    0    0    0 -0.0000000000e+00 -0.0000000000e+00 -4.4721471353e+01 1.0000100000e+04 1.0000000000e+04 0.0000e+00 -1.0000e+00
      -24  1    1    2    0    0 +5.2993735150e+03 -5.7432556700e+03 -5.8208269200e+03 9.7445751085e+03 7.9829010000e+01 0.0000e+00 1.0000e+00
       24  1    1    2    0    0 -6.0663634797e+02 +5.0104732304e+02 +6.9960874612e+02 1.0558793241e+03 7.9829010000e+01 0.0000e+00 -1.0000e+00
       22  1    1    2    0    0 +3.6741116334e+02 +1.4216723392e+02 +3.1612782020e+01 3.9522380157e+02 0.0000000000e+00 0.0000e+00 -1.0000e+00
       22  1    1    2    0    0 -5.0601483303e+03 +5.1000411131e+03 +5.0896053918e+03 8.8045217658e+03 0.0000000000e+00 0.0000e+00 1.0000e+00
</event>
<event>
 6      1 +1.4834189e-01 1.00447900e+04 7.81653100e-03 6.93602800e-02
  1000022 -1    0    0    0    0 +0.0000000000e+00 +0.0000000000e+00 +4.4721471353e+01 1.0000100000e+04 1.0000000000e+04 0.0000e+00 1.0000e+00
  1000022 -1    0    0    0    0 -0.0000000000e+00 -0.0000000000e+00 -4.4721471353e+01 1.0000100000e+04 1.0000000000e+04 0.0000e+00 1.0000e+00
      -24  1    1    2    0    0 -1.0891200656e+03 -6.1678706095e+03 +7.7378919225e+03 9.9554083014e+03 7.9829010000e+01 0.0000e+00 -1.0000e+00
       24  1    1    2    0    0 +9.1875028806e+02 +4.4807579793e+03 -6.2173635304e+03 7.7190204107e+03 7.9829010000e+01 0.0000e+00 -1.0000e+00
       22  1    1    2    0    0 -3.9364163455e+01 -1.7012025415e+01 -3.5259639613e+01 5.5517461748e+01 0.0000000000e+00 0.0000e+00 -1.0000e+00
       22  1    1    2    0    0 +2.0973394099e+02 +1.7041246556e+03 -1.4852687526e+03 2.2702538262e+03 0.0000000000e+00 0.0000e+00 -1.0000e+00
</event>
<event>
 6      1 +1.4834189e-01 1.02111500e+04 7.81653100e-03 6.92613100e-02
  1000022 -1    0    0    0    0 +0.0000000000e+00 +0.0000000000e+00 +4.4721471353e+01 1.0000100000e+04 1.0000000000e+04 0.0000e+00 -1.0000e+00
  1000022 -1    0    0    0    0 -0.0000000000e+00 -0.0000000000e+00 -4.4721471353e+01 1.0000100000e+04 1.0000000000e+04 0.0000e+00 -1.0000e+00
      -24  1    1    2    0    0 -2.4017559062e+03 -8.2068028798e+03 -3.2362595543e+02 8.5575201648e+03 7.9829010000e+01 0.0000e+00 -1.0000e+00
       24  1    1    2    0    0 +2.3350898489e+03 +9.3928824974e+03 +1.4629487366e+03 9.7890488756e+03 7.9829010000e+01 0.0000e+00 -1.0000e+00
       22  1    1    2    0    0 -9.3533523133e+00 -1.6443451180e+01 +1.7608319142e-01 1.8918332154e+01 0.0000000000e+00 0.0000e+00 1.0000e+00
       22  1    1    2    0    0 +7.6019409667e+01 -1.1696361664e+03 -1.1394988644e+03 1.6347126274e+03 0.0000000000e+00 0.0000e+00 -1.0000e+00
</event>
<event>
 6      1 +1.4834189e-01 1.00571800e+04 7.81653100e-03 6.93528400e-02
  1000022 -1    0    0    0    0 +0.0000000000e+00 +0.0000000000e+00 +4.4721471353e+01 1.0000100000e+04 1.0000000000e+04 0.0000e+00 1.0000e+00
  1000022 -1    0    0    0    0 -0.0000000000e+00 -0.0000000000e+00 -4.4721471353e+01 1.0000100000e+04 1.0000000000e+04 0.0000e+00 1.0000e+00
      -24  1    1    2    0    0 -5.2792163838e+03 +7.5197035352e+03 +2.6257002907e+03 9.5559793622e+03 7.9829010000e+01 0.0000e+00 1.0000e+00
       24  1    1    2    0    0 +4.7656155504e+03 -7.1351042942e+03 -2.6457076342e+03 8.9792508830e+03 7.9829010000e+01 0.0000e+00 1.0000e+00
       22  1    1    2    0    0 +2.0308993449e+01 +3.8875000192e+02 +3.1570236921e+02 5.0120555177e+02 0.0000000000e+00 0.0000e+00 -1.0000e+00
       22  1    1    2    0    0 +4.9329183996e+02 -7.7334924293e+02 -2.9569502566e+02 9.6376420306e+02 0.0000000000e+00 0.0000e+00 -1.0000e+00
</event>
<event>
 6      1 +1.4834189e-01 1.00677400e+04 7.81653100e-03 6.93465200e-02
  1000022 -1    0    0    0    0 +0.0000000000e+00 +0.0000000000e+00 +4.4721471353e+01 1.0000100000e+04 1.0000000000e+04 0.0000e+00 1.0000e+00
  1000022 -1    0    0    0    0 -0.0000000000e+00 -0.0000000000e+00 -4.4721471353e+01 1.0000100000e+04 1.0000000000e+04 0.0000e+00 1.0000e+00
      -24  1    1    2    0    0 -2.2446630769e+02 +8.6604735870e+02 -1.0418345570e+03 1.3755780842e+03 7.9829010000e+01 0.0000e+00 -1.0000e+00
       24  1    1    2    0    0 +1.3162861848e+03 -5.8860203132e+03 +7.4207951968e+03 9.5630757851e+03 7.9829010000e+01 0.0000e+00 1.0000e+00
       22  1    1    2    0    0 -9.2931316249e+02 +5.0343562951e+03 -6.8565242181e+03 8.5568855674e+03 0.0000000000e+00 0.0000e+00 1.0000e+00
       22  1    1    2    0    0 -1.6250671461e+02 -1.4383340514e+01 +4.7756357830e+02 5.0466056325e+02 0.0000000000e+00 0.0000e+00 1.0000e+00
</event>
<event>
 6      1 +1.4834189e-01 1.00049900e+04 7.81653100e-03 6.93842400e-02
  1000022 -1    0    0    0    0 +0.0000000000e+00 +0.0000000000e+00 +4.4721471353e+01 1.0000100000e+04 1.0000000000e+04 0.0000e+00 1.0000e+00
  1000022 -1    0    0    0    0 -0.0000000000e+00 -0.0000000000e+00 -4.4721471353e+01 1.0000100000e+04 1.0000000000e+04 0.0000e+00 1.0000e+00
      -24  1    1    2    0    0 -5.3750133662e+03 +2.3944238764e+02 -8.4231637424e+03 9.9952069236e+03 7.9829010000e+01 0.0000e+00 -1.0000e+00
       24  1    1    2    0    0 +1.1950412748e+03 -4.7237615189e+01 +1.9387572123e+03 2.2793655345e+03 7.9829010000e+01 0.0000e+00 -1.0000e+00
       22  1    1    2    0    0 +4.1318900470e+03 -2.2081973952e+02 +6.4374420388e+03 7.6525771293e+03 0.0000000000e+00 0.0000e+00 -1.0000e+00
       22  1    1    2    0    0 +4.8082044320e+01 +2.8614967063e+01 +4.6964491302e+01 7.3050412520e+01 0.0000000000e+00 0.0000e+00 -1.0000e+00
</event>
<event>
 6      1 +1.4834189e-01 1.00004200e+04 7.81653100e-03 6.93870000e-02
  1000022 -1    0    0    0    0 +0.0000000000e+00 +0.0000000000e+00 +4.4721471353e+01 1.0000100000e+04 1.0000000000e+04 0.0000e+00 1.0000e+00
  1000022 -1    0    0    0    0 -0.0000000000e+00 -0.0000000000e+00 -4.4721471353e+01 1.0000100000e+04 1.0000000000e+04 0.0000e+00 1.0000e+00
      -24  1    1    2    0    0 -6.9732525467e+03 -9.5421490272e+02 +6.9889302399e+03 9.9190874444e+03 7.9829010000e+01 0.0000e+00 -1.0000e+00
       24  1    1    2    0    0 +4.0715226653e+03 +5.0856593622e+02 -4.0485101038e+03 5.7647847191e+03 7.9829010000e+01 0.0000e+00 -1.0000e+00
       22  1    1    2    0    0 -5.4805918893e+01 -4.6500553607e+00 +5.9038800689e+01 8.0690096959e+01 0.0000000000e+00 0.0000e+00 1.0000e+00
       22  1    1    2    0    0 +2.9565358003e+03 +4.5029902186e+02 -2.9994589367e+03 4.2356377396e+03 0.0000000000e+00 0.0000e+00 -1.0000e+00
</event>
<event>
 6      1 +1.4834189e-01 1.00569600e+04 7.81653100e-03 6.93529700e-02
  1000022 -1    0    0    0    0 +0.0000000000e+00 +0.0000000000e+00 +4.4721471353e+01 1.0000100000e+04 1.0000000000e+04 0.0000e+00 -1.0000e+00
  1000022 -1    0    0    0    0 -0.0000000000e+00 -0.0000000000e+00 -4.4721471353e+01 1.0000100000e+04 1.0000000000e+04 0.0000e+00 -1.0000e+00
      -24  1    1    2    0    0 -5.6228996312e+03 -7.5149995453e+03 -2.0962979892e+03 9.6173310414e+03 7.9829010000e+01 0.0000e+00 -1.0000e+00
       24  1    1    2    0    0 +8.4838950564e+02 +5.2343826907e+02 +5.8853015158e+02 1.1603847573e+03 7.9829010000e+01 0.0000e+00 -1.0000e+00
       22  1    1    2    0    0 +4.9082894274e+03 +7.2245499786e+03 +1.6922483264e+03 8.8965797863e+03 0.0000000000e+00 0.0000e+00 -1.0000e+00
       22  1    1    2    0    0 -1.3377930184e+02 -2.3298870235e+02 -1.8448048871e+02 3.2590441504e+02 0.0000000000e+00 0.0000e+00 -1.0000e+00
</event>
<event>
 6      1 +1.4834189e-01 1.00036300e+04 7.81653100e-03 6.93850600e-02
  1000022 -1    0    0    0    0 +0.0000000000e+00 +0.0000000000e+00 +4.4721471353e+01 1.0000100000e+04 1.0000000000e+04 0.0000e+00 -1.0000e+00
  1000022 -1    0    0    0    0 -0.0000000000e+00 -0.0000000000e+00 -4.4721471353e+01 1.0000100000e+04 1.0000000000e+04 0.0000e+00 -1.0000e+00
      -24  1    1    2    0    0 +2.5926065298e+01 +7.1047098308e+03 -7.0318863512e+03 9.9965680244e+03 7.9829010000e+01 0.0000e+00 1.0000e+00
       24  1    1    2    0    0 -3.3230117400e+01 -7.0167500279e+03 +6.9318978729e+03 9.8637450284e+03 7.9829010000e+01 0.0000e+00 1.0000e+00
       22  1    1    2    0    0 +1.1938508592e+01 -2.9041190561e+00 +8.8748640732e+00 1.5156685232e+01 0.0000000000e+00 0.0000e+00 1.0000e+00
       22  1    1    2    0    0 -4.6344564898e+00 -8.5055683887e+01 +9.1113614203e+01 1.2473026193e+02 0.0000000000e+00 0.0000e+00 1.0000e+00
</event>
<event>
 6      1 +1.4834189e-01 7.23094500e+03 7.81653100e-03 7.14026100e-02
  1000022 -1    0    0    0    0 +0.0000000000e+00 +0.0000000000e+00 +4.4721471353e+01 1.0000100000e+04 1.0000000000e+04 0.0000e+00 -1.0000e+00
  1000022 -1    0    0    0    0 -0.0000000000e+00 -0.0000000000e+00 -4.4721471353e+01 1.0000100000e+04 1.0000000000e+04 0.0000e+00 -1.0000e+00
      -24  1    1    2    0    0 +2.1509848314e+02 -4.6821077473e+02 -4.6257196852e+03 4.6550127780e+03 7.9829010000e+01 0.0000e+00 1.0000e+00
       24  1    1    2    0    0 +5.5515705548e+03 +3.4725991982e+03 +5.5937977661e+03 8.6125389366e+03 7.9829010000e+01 0.0000e+00 1.0000e+00
       22  1    1    2    0    0 -5.8093152031e+03 -3.0383820389e+03 -8.6063380136e+02 6.6121554038e+03 0.0000000000e+00 0.0000e+00 1.0000e+00
       22  1    1    2    0    0 +4.2646165168e+01 +3.3993615439e+01 -1.0744427954e+02 1.2049288153e+02 0.0000000000e+00 0.0000e+00 1.0000e+00
</event>
<event>
 6      1 +1.4834189e-01 1.03494200e+04 7.81653100e-03 6.91804900e-02
  1000022 -1    0    0    0    0 +0.0000000000e+00 +0.0000000000e+00 +4.4721471353e+01 1.0000100000e+04 1.0000000000e+04 0.0000e+00 -1.0000e+00
  1000022 -1    0    0    0    0 -0.0000000000e+00 -0.0000000000e+00 -4.4721471353e+01 1.0000100000e+04 1.0000000000e+04 0.0000e+00 -1.0000e+00
      -24  1    1    2    0    0 +8.6442465440e+02 -2.1796734163e+03 -5.2869661562e+03 5.7841671822e+03 7.9829010000e+01 0.0000e+00 -1.0000e+00
       24  1    1    2    0    0 -2.1745731394e+03 +4.6057145986e+03 +8.1969397678e+03 9.6507807731e+03 7.9829010000e+01 0.0000e+00 -1.0000e+00
       22  1    1    2    0    0 +8.0606944675e+02 -2.7846461828e+03 -2.3920246811e+03 3.7584284470e+03 0.0000000000e+00 0.0000e+00 -1.0000e+00
       22  1    1    2    0    0 +5.0407903820e+02 +3.5860500047e+02 -5.1794893058e+02 8.0682359770e+02 0.0000000000e+00 0.0000e+00 -1.0000e+00
</event>
<event>
 6      1 +1.4834189e-01 1.01310200e+04 7.81653100e-03 6.93087500e-02
  1000022 -1    0    0    0    0 +0.0000000000e+00 +0.0000000000e+00 +4.4721471353e+01 1.0000100000e+04 1.0000000000e+04 0.0000e+00 1.0000e+00
  1000022 -1    0    0    0    0 -0.0000000000e+00 -0.0000000000e+00 -4.4721471353e+01 1.0000100000e+04 1.0000000000e+04 0.0000e+00 1.0000e+00
      -24  1    1    2    0    0 +6.5403669996e+03 -2.1604694074e+03 -5.6763801695e+03 8.9259001254e+03 7.9829010000e+01 0.0000e+00 1.0000e+00
       24  1    1    2    0    0 -4.1534084739e+03 +1.1236079690e+03 +4.0396370916e+03 5.9024009794e+03 7.9829010000e+01 0.0000e+00 1.0000e+00
       22  1    1    2    0    0 -2.7493110630e+03 +7.6840710724e+02 +2.7543039207e+03 3.9667809230e+03 0.0000000000e+00 0.0000e+00 1.0000e+00
       22  1    1    2    0    0 +3.6235253735e+02 +2.6845433120e+02 -1.1175608429e+03 1.2051179722e+03 0.0000000000e+00 0.0000e+00 1.0000e+00
</event>
<event>
 6      1 +1.4834189e-01 1.00262900e+04 7.81653100e-03 6.93714000e-02
  1000022 -1    0    0    0    0 +0.0000000000e+00 +0.0000000000e+00 +4.4721471353e+01 1.0000100000e+04 1.0000000000e+04 0.0000e+00 -1.0000e+00
  1000022 -1    0    0    0    0 -0.0000000000e+00 -0.0000000000e+00 -4.4721471353e+01 1.0000100000e+04 1.0000000000e+04 0.0000e+00 -1.0000e+00
      -24  1    1    2    0    0 -9.2427300881e+03 -1.4299659433e+03 -2.7786567507e+03 9.7570573479e+03 7.9829010000e+01 0.0000e+00 1.0000e+00
       24  1    1    2    0    0 +9.4000178966e+03 +1.5411657308e+03 +2.9558382259e+03 9.9739099933e+03 7.9829010000e+01 0.0000e+00 1.0000e+00
       22  1    1    2    0    0 -1.2038923375e+02 -1.0526448172e+02 -1.6534882267e+02 2.3003132803e+02 0.0000000000e+00 0.0000e+00 1.0000e+00
       22  1    1    2    0    0 -3.6898574688e+01 -5.9353058179e+00 -1.1832652466e+01 3.9201330763e+01 0.0000000000e+00 0.0000e+00 1.0000e+00
</event>
<event>
 6      1 +1.4834189e-01 1.02599300e+04 7.81653100e-03 6.92326600e-02
  1000022 -1    0    0    0    0 +0.0000000000e+00 +0.0000000000e+00 +4.4721471353e+01 1.0000100000e+04 1.0000000000e+04 0.0000e+00 1.0000e+00
  1000022 -1    0    0    0    0 -0.0000000000e+00 -0.0000000000e+00 -4.4721471353e+01 1.0000100000e+04 1.0000000000e+04 0.0000e+00 1.0000e+00
      -24  1    1    2    0    0 +4.5016254829e+03 +3.7155791509e+03 -1.6093013956e+03 6.0552773733e+03 7.9829010000e+01 0.0000e+00 -1.0000e+00
       24  1    1    2    0    0 -4.6485203319e+03 -2.1841759303e+03 +1.7599547048e+03 5.4298415266e+03 7.9829010000e+01 0.0000e+00 1.0000e+00
       22  1    1    2    0    0 -3.7582549060e+03 -1.5731916614e+03 +1.4072719259e+03 4.3104322538e+03 0.0000000000e+00 0.0000e+00 -1.0000e+00
       22  1    1    2    0    0 +3.9051497549e+03 +4.1788440675e+01 -1.5579252351e+03 4.2046488462e+03 0.0000000000e+00 0.0000e+00 -1.0000e+00
</event>
<event>
 6      1 +1.4834189e-01 1.00548300e+04 7.81653100e-03 6.93542500e-02
  1000022 -1    0    0    0    0 +0.0000000000e+00 +0.0000000000e+00 +4.4721471353e+01 1.0000100000e+04 1.0000000000e+04 0.0000e+00 1.0000e+00
  1000022 -1    0    0    0    0 -0.0000000000e+00 -0.0000000000e+00 -4.4721471353e+01 1.0000100000e+04 1.0000000000e+04 0.0000e+00 1.0000e+00
      -24  1    1    2    0    0 -1.9989736421e+03 +4.3851966733e+03 +8.6993212937e+03 9.9453712413e+03 7.9829010000e+01 0.0000e+00 1.0000e+00
       24  1    1    2    0    0 +8.8980928002e+02 -1.4057820255e+03 -1.9063665110e+03 2.5315192283e+03 7.9829010000e+01 0.0000e+00 -1.0000e+00
       22  1    1    2    0    0 +8.5397088578e+02 -2.6154971238e+03 -6.1927322094e+03 6.7764314868e+03 0.0000000000e+00 0.0000e+00 1.0000e+00
       22  1    1    2    0    0 +2.5519347626e+02 -3.6391752400e+02 -6.0022257328e+02 7.4687804365e+02 0.0000000000e+00 0.0000e+00 1.0000e+00
</event>
<event>
 6      1 +1.4834189e-01 1.00004800e+04 7.81653100e-03 6.93869600e-02
  1000022 -1    0    0    0    0 +0.0000000000e+00 +0.0000000000e+00 +4.4721471353e+01 1.0000100000e+04 1.0000000000e+04 0.0000e+00 1.0000e+00
  1000022 -1    0    0    0    0 -0.0000000000e+00 -0.0000000000e+00 -4.4721471353e+01 1.0000100000e+04 1.0000000000e+04 0.0000e+00 1.0000e+00
      -24  1    1    2    0    0 -3.6099442642e+03 -6.8561902003e+03 +6.2964522375e+03 9.9845242802e+03 7.9829010000e+01 0.0000e+00 -1.0000e+00
       24  1    1    2    0    0 +3.4503584448e+03 +6.5667428655e+03 -5.9950662985e+03 9.5380437121e+03 7.9829010000e+01 0.0000e+00 -1.0000e+00
       22  1    1    2    0    0 -5.2031517445e+00 -8.8459884210e+00 +1.1205715534e+01 1.5195142640e+01 0.0000000000e+00 0.0000e+00 -1.0000e+00
       22  1    1    2    0    0 +1.6478897112e+02 +2.9829332322e+02 -3.1259165454e+02 4.6243686507e+02 0.0000000000e+00 0.0000e+00 1.0000e+00
</event>
<event>
 6      1 +1.4834189e-01 1.00273200e+04 7.81653100e-03 6.93707900e-02
  1000022 -1    0    0    0    0 +0.0000000000e+00 +0.0000000000e+00 +4.4721471353e+01 1.0000100000e+04 1.0000000000e+04 0.0000e+00 1.0000e+00
  1000022 -1    0    0    0    0 -0.0000000000e+00 -0.0000000000e+00 -4.4721471353e+01 1.0000100000e+04 1.0000000000e+04 0.0000e+00 1.0000e+00
      -24  1    1    2    0    0 +2.1759824943e+03 -3.2401629713e+03 +9.1770617321e+03 9.9728827628e+03 7.9829010000e+01 0.0000e+00 -1.0000e+00
       24  1    1    2    0    0 -1.1134549437e+03 +1.7671259232e+03 -4.9664310357e+03 5.3883509392e+03 7.9829010000e+01 0.0000e+00 0.0000e+00
       22  1    1    2    0    0 -1.5078303242e+02 +1.7828042541e+00 -1.0600223698e+02 1.8432356198e+02 0.0000000000e+00 0.0000e+00 1.0000e+00
       22  1    1    2    0    0 -9.1174451815e+02 +1.4712542438e+03 -4.1046284594e+03 4.4546427360e+03 0.0000000000e+00 0.0000e+00 -1.0000e+00
</event>
<event>
 6      1 +1.4834189e-01 1.01581100e+04 7.81653100e-03 6.92926600e-02
  1000022 -1    0    0    0    0 +0.0000000000e+00 +0.0000000000e+00 +4.4721471353e+01 1.0000100000e+04 1.0000000000e+04 0.0000e+00 1.0000e+00
  1000022 -1    0    0    0    0 -0.0000000000e+00 -0.0000000000e+00 -4.4721471353e+01 1.0000100000e+04 1.0000000000e+04 0.0000e+00 1.0000e+00
      -24  1    1    2    0    0 -2.0886449672e+02 +8.1011640149e+03 +2.8972685037e+03 8.6065684350e+03 7.9829010000e+01 0.0000e+00 -1.0000e+00
       24  1    1    2    0    0 -2.7483623846e+01 -8.8993477039e+03 -4.2025326891e+03 9.8420932010e+03 7.9829010000e+01 0.0000e+00 -1.0000e+00
       22  1    1    2    0    0 +2.3751678826e+02 +7.7965140266e+02 +1.2955161284e+03 1.5305660957e+03 0.0000000000e+00 0.0000e+00 -1.0000e+00
       22  1    1    2    0    0 -1.1686676890e+00 +1.8532286344e+01 +9.7480570016e+00 2.0972268275e+01 0.0000000000e+00 0.0000e+00 -1.0000e+00
</event>
<event>
 6      1 +1.4834189e-01 1.01189600e+04 7.81653100e-03 6.93159200e-02
  1000022 -1    0    0    0    0 +0.0000000000e+00 +0.0000000000e+00 +4.4721471353e+01 1.0000100000e+04 1.0000000000e+04 0.0000e+00 -1.0000e+00
  1000022 -1    0    0    0    0 -0.0000000000e+00 -0.0000000000e+00 -4.4721471353e+01 1.0000100000e+04 1.0000000000e+04 0.0000e+00 -1.0000e+00
      -24  1    1    2    0    0 -5.5146237937e+03 +6.3933846926e+03 +3.3289461390e+03 9.0760508196e+03 7.9829010000e+01 0.0000e+00 -1.0000e+00
       24  1    1    2    0    0 +6.1031334695e+03 -6.8213295967e+03 -3.7220580565e+03 9.8812380024e+03 7.9829010000e+01 0.0000e+00 -1.0000e+00
       22  1    1    2    0    0 -9.9028784863e+01 +2.1646183979e+02 +4.4756053712e+02 5.0692490835e+02 0.0000000000e+00 0.0000e+00 -1.0000e+00
       22  1    1    2    0    0 -4.8948089091e+02 +2.1148306432e+02 -5.4448619595e+01 5.3598626963e+02 0.0000000000e+00 0.0000e+00 -1.0000e+00
</event>
<event>
 6      1 +1.4834189e-01 1.06953300e+04 7.81653100e-03 6.89837400e-02
  1000022 -1    0    0    0    0 +0.0000000000e+00 +0.0000000000e+00 +4.4721471353e+01 1.0000100000e+04 1.0000000000e+04 0.0000e+00 -1.0000e+00
  1000022 -1    0    0    0    0 -0.0000000000e+00 -0.0000000000e+00 -4.4721471353e+01 1.0000100000e+04 1.0000000000e+04 0.0000e+00 -1.0000e+00
      -24  1    1    2    0    0 +7.4939683894e+03 +3.3521769979e+03 -3.4754008535e+03 8.9152362060e+03 7.9829010000e+01 0.0000e+00 -1.0000e+00
       24  1    1    2    0    0 -5.8355352151e+01 -3.4363792140e+02 +4.0795514903e+01 3.5990181025e+02 7.9829010000e+01 0.0000e+00 -1.0000e+00
       22  1    1    2    0    0 -6.5412959315e+03 -3.9234720174e+03 +4.6722809186e+03 8.9449647354e+03 0.0000000000e+00 0.0000e+00 -1.0000e+00
       22  1    1    2    0    0 -8.9431710570e+02 +9.1493294091e+02 -1.2376755801e+03 1.7800972483e+03 0.0000000000e+00 0.0000e+00 1.0000e+00
</event>
<event>
 6      1 +1.4834189e-01 1.02448800e+04 7.81653100e-03 6.92414800e-02
  1000022 -1    0    0    0    0 +0.0000000000e+00 +0.0000000000e+00 +4.4721471353e+01 1.0000100000e+04 1.0000000000e+04 0.0000e+00 1.0000e+00
  1000022 -1    0    0    0    0 -0.0000000000e+00 -0.0000000000e+00 -4.4721471353e+01 1.0000100000e+04 1.0000000000e+04 0.0000e+00 1.0000e+00
      -24  1    1    2    0    0 -1.4345851841e+03 +9.1933113828e+03 +1.8257487154e+03 9.4823383126e+03 7.9829010000e+01 0.0000e+00 1.0000e+00
       24  1    1    2    0    0 +1.5898563950e+03 -9.1979142562e+03 -2.5398117248e+03 9.6740005318e+03 7.9829010000e+01 0.0000e+00 1.0000e+00
       22  1    1    2    0    0 +9.8588922198e+00 -7.6423758885e+01 -2.5966735001e+01 8.1314574367e+01 0.0000000000e+00 0.0000e+00 -1.0000e+00
       22  1    1    2    0    0 -1.6513010309e+02 +8.1026632244e+01 +7.4002974432e+02 7.6254658124e+02 0.0000000000e+00 0.0000e+00 -1.0000e+00
</event>
<event>
 6      1 +1.4834189e-01 1.00123800e+04 7.81653100e-03 6.93797800e-02
  1000022 -1    0    0    0    0 +0.0000000000e+00 +0.0000000000e+00 +4.4721471353e+01 1.0000100000e+04 1.0000000000e+04 0.0000e+00 -1.0000e+00
  1000022 -1    0    0    0    0 -0.0000000000e+00 -0.0000000000e+00 -4.4721471353e+01 1.0000100000e+04 1.0000000000e+04 0.0000e+00 -1.0000e+00
      -24  1    1    2    0    0 -3.0679775416e+03 -9.3715263537e+03 +2.4772256121e+02 9.8643667577e+03 7.9829010000e+01 0.0000e+00 1.0000e+00
       24  1    1    2    0    0 +7.3430594274e+02 +1.5610403836e+03 -1.8876114504e+02 1.7372552310e+03 7.9829010000e+01 0.0000e+00 1.0000e+00
       22  1    1    2    0    0 -4.2113145208e+01 -1.1603089813e+02 +1.8740607191e+00 1.2345119855e+02 0.0000000000e+00 0.0000e+00 1.0000e+00
       22  1    1    2    0    0 +2.3757847441e+03 +7.9265168682e+03 -6.0835476891e+01 8.2751268127e+03 0.0000000000e+00 0.0000e+00 1.0000e+00
</event>
<event>
 6      1 +1.4834189e-01 1.07049900e+04 7.81653100e-03 6.89783500e-02
  1000022 -1    0    0    0    0 +0.0000000000e+00 +0.0000000000e+00 +4.4721471353e+01 1.0000100000e+04 1.0000000000e+04 0.0000e+00 1.0000e+00
  1000022 -1    0    0    0    0 -0.0000000000e+00 -0.0000000000e+00 -4.4721471353e+01 1.0000100000e+04 1.0000000000e+04 0.0000e+00 1.0000e+00
      -24  1    1    2    0    0 +3.4597156667e+03 -2.9106256648e+03 +8.1211606881e+03 9.2952137064e+03 7.9829010000e+01 0.0000e+00 1.0000e+00
       24  1    1    2    0    0 -4.7551989405e+03 +1.5954157553e+03 -5.8781230944e+03 7.7276110267e+03 7.9829010000e+01 0.0000e+00 1.0000e+00
       22  1    1    2    0    0 -7.2417913164e+01 +2.2453082279e+01 -8.5450054953e+01 1.1423750235e+02 0.0000000000e+00 0.0000e+00 1.0000e+00
       22  1    1    2    0    0 +1.3679011869e+03 +1.2927568272e+03 -2.1575875387e+03 2.8631377646e+03 0.0000000000e+00 0.0000e+00 1.0000e+00
</event>
<event>
 6      1 +1.4834189e-01 1.00006600e+04 7.81653100e-03 6.93868600e-02
  1000022 -1    0    0    0    0 +0.0000000000e+00 +0.0000000000e+00 +4.4721471353e+01 1.0000100000e+04 1.0000000000e+04 0.0000e+00 -1.0000e+00
  1000022 -1    0    0    0    0 -0.0000000000e+00 -0.0000000000e+00 -4.4721471353e+01 1.0000100000e+04 1.0000000000e+04 0.0000e+00 -1.0000e+00
      -24  1    1    2    0    0 -2.9950955631e+02 -6.4199065235e+03 +7.1149078841e+03 9.5881798385e+03 7.9829010000e+01 0.0000e+00 1.0000e+00
       24  1    1    2    0    0 +3.4565063236e+02 +6.7061692652e+03 -7.3900378423e+03 9.9855501879e+03 7.9829010000e+01 0.0000e+00 1.0000e+00
       22  1    1    2    0    0 -4.3065909511e+00 +9.4646904577e+00 -9.3598794295e+00 1.3990512286e+01 0.0000000000e+00 0.0000e+00 -1.0000e+00
       22  1    1    2    0    0 -4.1834485094e+01 -2.9572743213e+02 +2.8448983762e+02 4.1247946127e+02 0.0000000000e+00 0.0000e+00 1.0000e+00
</event>
<event>
 6      1 +1.4834189e-01 1.00146500e+04 7.81653100e-03 6.93784100e-02
  1000022 -1    0    0    0    0 +0.0000000000e+00 +0.0000000000e+00 +4.4721471353e+01 1.0000100000e+04 1.0000000000e+04 0.0000e+00 -1.0000e+00
  1000022 -1    0    0    0    0 -0.0000000000e+00 -0.0000000000e+00 -4.4721471353e+01 1.0000100000e+04 1.0000000000e+04 0.0000e+00 -1.0000e+00
      -24  1    1    2    0    0 -1.3239784285e+02 -4.9671501085e+03 -8.1776525406e+03 9.5692467381e+03 7.9829010000e+01 0.0000e+00 -1.0000e+00
       24  1    1    2    0    0 +2.6848261050e+02 +5.1951336331e+03 +8.5231040087e+03 9.9855481067e+03 7.9829010000e+01 0.0000e+00 -1.0000e+00
       22  1    1    2    0    0 -4.9908617445e-01 -7.2023451584e+01 -6.4861489442e+01 9.6925948423e+01 0.0000000000e+00 0.0000e+00 -1.0000e+00
       22  1    1    2    0    0 -1.3558568147e+02 -1.5596007304e+02 -2.8058997866e+02 3.4847920673e+02 0.0000000000e+00 0.0000e+00 1.0000e+00
</event>
<event>
 6      1 +1.4834189e-01 1.00218300e+04 7.81653100e-03 6.93740900e-02
  1000022 -1    0    0    0    0 +0.0000000000e+00 +0.0000000000e+00 +4.4721471353e+01 1.0000100000e+04 1.0000000000e+04 0.0000e+00 -1.0000e+00
  1000022 -1    0    0    0    0 -0.0000000000e+00 -0.0000000000e+00 -4.4721471353e+01 1.0000100000e+04 1.0000000000e+04 0.0000e+00 -1.0000e+00
      -24  1    1    2    0    0 -5.1672379192e+03 -1.6141424601e+03 +1.7096484411e+03 5.6775940378e+03 7.9829010000e+01 0.0000e+00 1.0000e+00
       24  1    1    2    0    0 +9.2442764881e+03 +2.9835760119e+03 -2.2245745721e+03 9.9656147981e+03 7.9829010000e+01 0.0000e+00 1.0000e+00
       22  1    1    2    0    0 -4.0891791142e+03 -1.3722706737e+03 +5.1759963618e+02 4.3442400962e+03 0.0000000000e+00 0.0000e+00 1.0000e+00
       22  1    1    2    0    0 +1.2140545328e+01 +2.8371219142e+00 -2.6735051595e+00 1.2751067855e+01 0.0000000000e+00 0.0000e+00 1.0000e+00
</event>
<event>
 6      1 +1.4834189e-01 1.00107700e+04 7.81653100e-03 6.93807500e-02
  1000022 -1    0    0    0    0 +0.0000000000e+00 +0.0000000000e+00 +4.4721471353e+01 1.0000100000e+04 1.0000000000e+04 0.0000e+00 -1.0000e+00
  1000022 -1    0    0    0    0 -0.0000000000e+00 -0.0000000000e+00 -4.4721471353e+01 1.0000100000e+04 1.0000000000e+04 0.0000e+00 -1.0000e+00
      -24  1    1    2    0    0 +3.0607268393e+03 -8.7812688723e+03 +3.5983981234e+03 9.9716384571e+03 7.9829010000e+01 0.0000e+00 1.0000e+00
       24  1    1    2    0    0 -2.6598038729e+03 +7.5077175298e+03 -3.0848957140e+03 8.5418577246e+03 7.9829010000e+01 0.0000e+00 1.0000e+00
       22  1    1    2    0    0 +3.5126541535e+01 -1.2438113731e+01 -1.1960807325e+01 3.9136191757e+01 0.0000000000e+00 0.0000e+00 -1.0000e+00
       22  1    1    2    0    0 -4.3604950795e+02 +1.2859894563e+03 -5.0154160200e+02 1.4475676266e+03 0.0000000000e+00 0.0000e+00 1.0000e+00
</event>
<event>
 6      1 +1.4834189e-01 1.02630700e+04 7.81653100e-03 6.92308200e-02
  1000022 -1    0    0    0    0 +0.0000000000e+00 +0.0000000000e+00 +4.4721471353e+01 1.0000100000e+04 1.0000000000e+04 0.0000e+00 1.0000e+00
  1000022 -1    0    0    0    0 -0.0000000000e+00 -0.0000000000e+00 -4.4721471353e+01 1.0000100000e+04 1.0000000000e+04 0.0000e+00 1.0000e+00
      -24  1    1    2    0    0 +2.1462587508e+03 -8.0171212827e+03 -4.9187030565e+03 9.6478325397e+03 7.9829010000e+01 0.0000e+00 -1.0000e+00
       24  1    1    2    0    0 -2.8676745517e+03 +7.6169649170e+03 +4.6801690001e+03 9.3889331887e+03 7.9829010000e+01 0.0000e+00 -1.0000e+00
       22  1    1    2    0    0 +1.2875713209e+02 +2.3589898756e+02 +2.2138968654e+02 3.4819552654e+02 0.0000000000e+00 0.0000e+00 1.0000e+00
       22  1    1    2    0    0 +5.9265866881e+02 +1.6425737811e+02 +1.7144369790e+01 6.1523874504e+02 0.0000000000e+00 0.0000e+00 1.0000e+00
</event>
<event>
 6      1 +1.4834189e-01 1.00085700e+04 7.81653100e-03 6.93820800e-02
  1000022 -1    0    0    0    0 +0.0000000000e+00 +0.0000000000e+00 +4.4721471353e+01 1.0000100000e+04 1.0000000000e+04 0.0000e+00 -1.0000e+00
  1000022 -1    0    0    0    0 -0.0000000000e+00 -0.0000000000e+00 -4.4721471353e+01 1.0000100000e+04 1.0000000000e+04 0.0000e+00 -1.0000e+00
      -24  1    1    2    0    0 +7.1710688599e+03 +4.9369501295e+03 +4.6803723450e+03 9.8848350079e+03 7.9829010000e+01 0.0000e+00 1.0000e+00
       24  1    1    2    0    0 -7.2217132527e+03 -5.0068594236e+03 -4.7171533598e+03 9.9739506758e+03 7.9829010000e+01 0.0000e+00 1.0000e+00
       22  1    1    2    0    0 -3.2220313854e+01 +1.2584791005e+01 +1.3882112980e+00 3.4618675886e+01 0.0000000000e+00 0.0000e+00 -1.0000e+00
       22  1    1    2    0    0 +8.2864706690e+01 +5.7324503159e+01 +3.5392803499e+01 1.0679564044e+02 0.0000000000e+00 0.0000e+00 -1.0000e+00
</event>
<event>
 6      1 +1.4834189e-01 1.02695800e+04 7.81653100e-03 6.92270100e-02
  1000022 -1    0    0    0    0 +0.0000000000e+00 +0.0000000000e+00 +4.4721471353e+01 1.0000100000e+04 1.0000000000e+04 0.0000e+00 -1.0000e+00
  1000022 -1    0    0    0    0 -0.0000000000e+00 -0.0000000000e+00 -4.4721471353e+01 1.0000100000e+04 1.0000000000e+04 0.0000e+00 -1.0000e+00
      -24  1    1    2    0    0 +5.0265803484e+03 -6.1582168477e+03 +3.3557800110e+03 8.6288919853e+03 7.9829010000e+01 0.0000e+00 -1.0000e+00
       24  1    1    2    0    0 -5.4245739771e+03 +7.4401021142e+03 -2.0322698622e+03 9.4296137655e+03 7.9829010000e+01 0.0000e+00 -1.0000e+00
       22  1    1    2    0    0 +4.5919087822e+02 -1.1751809528e+03 -1.0487846884e+03 1.6406876172e+03 0.0000000000e+00 0.0000e+00 -1.0000e+00
       22  1    1    2    0    0 -6.1197249511e+01 -1.0670431368e+02 -2.7472546041e+02 3.0100663199e+02 0.0000000000e+00 0.0000e+00 -1.0000e+00
</event>
<event>
 6      1 +1.4834189e-01 6.66958200e+03 7.81653100e-03 7.19235700e-02
  1000022 -1    0    0    0    0 +0.0000000000e+00 +0.0000000000e+00 +4.4721471353e+01 1.0000100000e+04 1.0000000000e+04 0.0000e+00 1.0000e+00
  1000022 -1    0    0    0    0 -0.0000000000e+00 -0.0000000000e+00 -4.4721471353e+01 1.0000100000e+04 1.0000000000e+04 0.0000e+00 1.0000e+00
      -24  1    1    2    0    0 -3.6413958128e+03 -3.2849679474e+03 -2.6021134043e+03 5.5523098545e+03 7.9829010000e+01 0.0000e+00 1.0000e+00
       24  1    1    2    0    0 -2.2078703062e+03 +5.6783471967e+03 -2.1544328846e+03 6.4626830264e+03 7.9829010000e+01 0.0000e+00 1.0000e+00
       22  1    1    2    0    0 -1.6087528087e+01 +3.7260834822e+01 -1.4756669615e+01 4.3184924102e+01 0.0000000000e+00 0.0000e+00 -1.0000e+00
       22  1    1    2    0    0 +5.8653536470e+03 -2.4306400841e+03 +4.7713029585e+03 7.9420221950e+03 0.0000000000e+00 0.0000e+00 1.0000e+00
</event>
<event>
 6      1 +1.4834189e-01 1.00248200e+04 7.81653100e-03 6.93722900e-02
  1000022 -1    0    0    0    0 +0.0000000000e+00 +0.0000000000e+00 +4.4721471353e+01 1.0000100000e+04 1.0000000000e+04 0.0000e+00 -1.0000e+00
  1000022 -1    0    0    0    0 -0.0000000000e+00 -0.0000000000e+00 -4.4721471353e+01 1.0000100000e+04 1.0000000000e+04 0.0000e+00 -1.0000e+00
      -24  1    1    2    0    0 +8.4738443525e+03 +5.1651027488e+03 +8.6760056043e+02 9.9620995738e+03 7.9829010000e+01 0.0000e+00 -1.0000e+00
       24  1    1    2    0    0 -8.3625542591e+03 -4.9143733151e+03 -8.2010977192e+02 9.7345945743e+03 7.9829010000e+01 0.0000e+00 -1.0000e+00
       22  1    1    2    0    0 -1.2161421275e+02 -2.5881491823e+02 -4.9571432326e+01 2.9022836792e+02 0.0000000000e+00 0.0000e+00 -1.0000e+00
       22  1    1    2    0    0 +1.0324119389e+01 +8.0854845750e+00 +2.0806438185e+00 1.3277483974e+01 0.0000000000e+00 0.0000e+00 -1.0000e+00
</event>
<event>
 6      1 +1.4834189e-01 1.00739400e+04 7.81653100e-03 6.93428000e-02
  1000022 -1    0    0    0    0 +0.0000000000e+00 +0.0000000000e+00 +4.4721471353e+01 1.0000100000e+04 1.0000000000e+04 0.0000e+00 -1.0000e+00
  1000022 -1    0    0    0    0 -0.0000000000e+00 -0.0000000000e+00 -4.4721471353e+01 1.0000100000e+04 1.0000000000e+04 0.0000e+00 -1.0000e+00
      -24  1    1    2    0    0 +5.5191794832e+03 -1.1888487839e+03 -8.1639200692e+03 9.9262614899e+03 7.9829010000e+01 0.0000e+00 1.0000e+00
       24  1    1    2    0    0 -5.6257302228e+03 +1.2280919218e+03 +7.9673619833e+03 9.8306805437e+03 7.9829010000e+01 0.0000e+00 1.0000e+00
       22  1    1    2    0    0 +1.2101575677e+02 -4.2878453677e+01 +1.7507954454e+02 2.1710877940e+02 0.0000000000e+00 0.0000e+00 -1.0000e+00
       22  1    1    2    0    0 -1.4465017189e+01 +3.6353157352e+00 +2.1478541364e+01 2.6149187021e+01 0.0000000000e+00 0.0000e+00 1.0000e+00
</event>
<event>
 6      1 +1.4834189e-01 1.00001100e+04 7.81653100e-03 6.93871900e-02
  1000022 -1    0    0    0    0 +0.0000000000e+00 +0.0000000000e+00 +4.4721471353e+01 1.0000100000e+04 1.0000000000e+04 0.0000e+00 1.0000e+00
  1000022 -1    0    0    0    0 -0.0000000000e+00 -0.0000000000e+00 -4.4721471353e+01 1.0000100000e+04 1.0000000000e+04 0.0000e+00 1.0000e+00
      -24  1    1    2    0    0 +7.7014768460e+02 +9.5322216258e+03 -1.7473071879e+03 9.7219253062e+03 7.9829010000e+01 0.0000e+00 1.0000e+00
       24  1    1    2    0    0 -7.8146927089e+02 -9.7356525987e+03 +1.7818707923e+03 9.9284974662e+03 7.9829010000e+01 0.0000e+00 1.0000e+00
       22  1    1    2    0    0 -7.0374519604e+00 -7.0432181108e+01 +1.0716638911e+01 7.1589553814e+01 0.0000000000e+00 0.0000e+00 1.0000e+00
       22  1    1    2    0    0 +1.8359038254e+01 +2.7386315408e+02 -4.5280243228e+01 2.7818767384e+02 0.0000000000e+00 0.0000e+00 1.0000e+00
</event>
<event>
 6      1 +1.4834189e-01 1.00742500e+04 7.81653100e-03 6.93426200e-02
  1000022 -1    0    0    0    0 +0.0000000000e+00 +0.0000000000e+00 +4.4721471353e+01 1.0000100000e+04 1.0000000000e+04 0.0000e+00 1.0000e+00
  1000022 -1    0    0    0    0 -0.0000000000e+00 -0.0000000000e+00 -4.4721471353e+01 1.0000100000e+04 1.0000000000e+04 0.0000e+00 1.0000e+00
      -24  1    1    2    0    0 +5.2887974043e+03 -2.9377885820e+03 -3.5651992321e+03 7.0227486052e+03 7.9829010000e+01 0.0000e+00 -1.0000e+00
       24  1    1    2    0    0 -3.7664004527e+03 +2.2149687890e+03 +3.2968001238e+03 5.4742234913e+03 7.9829010000e+01 0.0000e+00 -1.0000e+00
       22  1    1    2    0    0 +1.6470986314e+03 -8.8904367940e+02 -2.4100463270e+03 3.0515005921e+03 0.0000000000e+00 0.0000e+00 -1.0000e+00
       22  1    1    2    0    0 -3.1694955830e+03 +1.6118634725e+03 +2.6784454354e+03 4.4517273113e+03 0.0000000000e+00 0.0000e+00 -1.0000e+00
</event>
<event>
 6      1 +1.4834189e-01 1.01287300e+04 7.81653100e-03 6.93101000e-02
  1000022 -1    0    0    0    0 +0.0000000000e+00 +0.0000000000e+00 +4.4721471353e+01 1.0000100000e+04 1.0000000000e+04 0.0000e+00 1.0000e+00
  1000022 -1    0    0    0    0 -0.0000000000e+00 -0.0000000000e+00 -4.4721471353e+01 1.0000100000e+04 1.0000000000e+04 0.0000e+00 1.0000e+00
      -24  1    1    2    0    0 +7.0381471088e+03 +4.2497525998e+03 +2.2729689484e+03 8.5304555796e+03 7.9829010000e+01 0.0000e+00 -1.0000e+00
       24  1    1    2    0    0 -7.9664471238e+03 -5.2031605152e+03 -2.6272214232e+03 9.8714651496e+03 7.9829010000e+01 0.0000e+00 -1.0000e+00
       22  1    1    2    0    0 +1.0443973829e+03 +6.9757230824e+02 +3.8993894935e+02 1.3150761966e+03 0.0000000000e+00 0.0000e+00 1.0000e+00
       22  1    1    2    0    0 -1.1609736793e+02 +2.5583560713e+02 -3.5686474562e+01 2.8320307411e+02 0.0000000000e+00 0.0000e+00 -1.0000e+00
</event>
<event>
 6      1 +1.4834189e-01 1.00183100e+04 7.81653100e-03 6.93762100e-02
  1000022 -1    0    0    0    0 +0.0000000000e+00 +0.0000000000e+00 +4.4721471353e+01 1.0000100000e+04 1.0000000000e+04 0.0000e+00 1.0000e+00
  1000022 -1    0    0    0    0 -0.0000000000e+00 -0.0000000000e+00 -4.4721471353e+01 1.0000100000e+04 1.0000000000e+04 0.0000e+00 1.0000e+00
      -24  1    1    2    0    0 -3.8284556735e+03 +8.8923689502e+03 -3.9430880100e+02 9.6898478055e+03 7.9829010000e+01 0.0000e+00 -1.0000e+00
       24  1    1    2    0    0 +3.9377208128e+03 -9.1652127689e+03 +3.5365500921e+02 9.9818943510e+03 7.9829010000e+01 0.0000e+00 -1.0000e+00
       22  1    1    2    0    0 -1.1390446081e+01 +1.1810182525e+02 -4.4250599433e+01 1.2663292992e+02 0.0000000000e+00 0.0000e+00 1.0000e+00
       22  1    1    2    0    0 -9.7874693207e+01 +1.5474199341e+02 +8.4904391224e+01 2.0182491358e+02 0.0000000000e+00 0.0000e+00 1.0000e+00
</event>
<event>
 6      1 +1.4834189e-01 1.01759700e+04 7.81653100e-03 6.92820800e-02
  1000022 -1    0    0    0    0 +0.0000000000e+00 +0.0000000000e+00 +4.4721471353e+01 1.0000100000e+04 1.0000000000e+04 0.0000e+00 -1.0000e+00
  1000022 -1    0    0    0    0 -0.0000000000e+00 -0.0000000000e+00 -4.4721471353e+01 1.0000100000e+04 1.0000000000e+04 0.0000e+00 -1.0000e+00
      -24  1    1    2    0    0 -1.4655978182e+03 +1.0281325981e+03 +2.0433024358e+03 2.7178099858e+03 7.9829010000e+01 0.0000e+00 1.0000e+00
       24  1    1    2    0    0 +4.3635837711e+03 -6.6857006267e+03 -4.5549198881e+03 9.1920141457e+03 7.9829010000e+01 0.0000e+00 1.0000e+00
       22  1    1    2    0    0 +3.0424679152e+02 -4.5718744589e+02 -3.1321678897e+02 6.3221137899e+02 0.0000000000e+00 0.0000e+00 -1.0000e+00
       22  1    1    2    0    0 -3.2022327444e+03 +6.1147554745e+03 +2.8248342412e+03 7.4581644895e+03 0.0000000000e+00 0.0000e+00 1.0000e+00
</event>
<event>
 6      1 +1.4834189e-01 1.00148300e+04 7.81653100e-03 6.93783100e-02
  1000022 -1    0    0    0    0 +0.0000000000e+00 +0.0000000000e+00 +4.4721471353e+01 1.0000100000e+04 1.0000000000e+04 0.0000e+00 -1.0000e+00
  1000022 -1    0    0    0    0 -0.0000000000e+00 -0.0000000000e+00 -4.4721471353e+01 1.0000100000e+04 1.0000000000e+04 0.0000e+00 -1.0000e+00
      -24  1    1    2    0    0 +4.3184199786e+03 -2.0598683984e+01 +6.8307764929e+03 8.0817730471e+03 7.9829010000e+01 0.0000e+00 1.0000e+00
       24  1    1    2    0    0 -5.2695135487e+03 -2.0338669104e+01 -8.4813401251e+03 9.9853737882e+03 7.9829010000e+01 0.0000e+00 1.0000e+00
       22  1    1    2    0    0 +1.9360573218e+01 +5.6893436555e+01 +2.0103287579e+02 2.0982352601e+02 0.0000000000e+00 0.0000e+00 -1.0000e+00
       22  1    1    2    0    0 +9.3173299694e+02 -1.5956083466e+01 +1.4495307563e+03 1.7232296387e+03 0.0000000000e+00 0.0000e+00 1.0000e+00
</event>
<event>
 6      1 +1.4834189e-01 1.02200200e+04 7.81653100e-03 6.92560900e-02
  1000022 -1    0    0    0    0 +0.0000000000e+00 +0.0000000000e+00 +4.4721471353e+01 1.0000100000e+04 1.0000000000e+04 0.0000e+00 -1.0000e+00
  1000022 -1    0    0    0    0 -0.0000000000e+00 -0.0000000000e+00 -4.4721471353e+01 1.0000100000e+04 1.0000000000e+04 0.0000e+00 -1.0000e+00
      -24  1    1    2    0    0 -3.9610949712e+03 -8.1040782099e+03 -1.6413490978e+03 9.1687925341e+03 7.9829010000e+01 0.0000e+00 1.0000e+00
       24  1    1    2    0    0 +3.5558216756e+03 +8.8531371217e+03 +2.1502725224e+03 9.7801814541e+03 7.9829010000e+01 0.0000e+00 1.0000e+00
       22  1    1    2    0    0 -5.2197838670e+01 -9.7251517384e+01 -8.4639502623e+00 1.1069828567e+02 0.0000000000e+00 0.0000e+00 -1.0000e+00
       22  1    1    2    0    0 +4.5747113419e+02 -6.5180739445e+02 -5.0045947429e+02 9.4052772606e+02 0.0000000000e+00 0.0000e+00 1.0000e+00
</event>
<event>
 6      1 +1.4834189e-01 7.92903300e+03 7.81653100e-03 7.08177500e-02
  1000022 -1    0    0    0    0 +0.0000000000e+00 +0.0000000000e+00 +4.4721471353e+01 1.0000100000e+04 1.0000000000e+04 0.0000e+00 -1.0000e+00
  1000022 -1    0    0    0    0 -0.0000000000e+00 -0.0000000000e+00 -4.4721471353e+01 1.0000100000e+04 1.0000000000e+04 0.0000e+00 -1.0000e+00
      -24  1    1    2    0    0 +3.3531895595e+02 +2.3809297671e+03 +2.8291121046e+03 3.7136926810e+03 7.9829010000e+01 0.0000e+00 1.0000e+00
       24  1    1    2    0    0 -4.4781634449e+03 -7.5957118737e+03 +2.5664964192e+02 8.8216227769e+03 7.9829010000e+01 0.0000e+00 1.0000e+00
       22  1    1    2    0    0 +4.1753612441e+03 +5.2714775809e+03 -3.0871741736e+03 7.3995109151e+03 0.0000000000e+00 0.0000e+00 1.0000e+00
       22  1    1    2    0    0 -3.2516755132e+01 -5.6695474207e+01 +1.4124271150e+00 6.5373627024e+01 0.0000000000e+00 0.0000e+00 1.0000e+00
</event>
<event>
 6      1 +1.4834189e-01 1.00160100e+04 7.81653100e-03 6.93776000e-02
  1000022 -1    0    0    0    0 +0.0000000000e+00 +0.0000000000e+00 +4.4721471353e+01 1.0000100000e+04 1.0000000000e+04 0.0000e+00 -1.0000e+00
  1000022 -1    0    0    0    0 -0.0000000000e+00 -0.0000000000e+00 -4.4721471353e+01 1.0000100000e+04 1.0000000000e+04 0.0000e+00 -1.0000e+00
      -24  1    1    2    0    0 +3.4935005167e+02 +2.4518118400e+03 +1.6617864510e+02 2.4834280280e+03 7.9829010000e+01 0.0000e+00 1.0000e+00
       24  1    1    2    0    0 -2.0184919944e+03 -9.6869422453e+03 +5.4364800876e+02 9.9102515519e+03 7.9829010000e+01 0.0000e+00 1.0000e+00
       22  1    1    2    0    0 +1.6810905544e+03 +7.3069223050e+03 -7.2288531257e+02 7.5325787217e+03 0.0000000000e+00 0.0000e+00 1.0000e+00
       22  1    1    2    0    0 -1.1948611744e+01 -7.1791899726e+01 +1.3058658708e+01 7.3941698358e+01 0.0000000000e+00 0.0000e+00 -1.0000e+00
</event>
<event>
 6      1 +1.4834189e-01 9.48590800e+03 7.81653100e-03 6.97074300e-02
  1000022 -1    0    0    0    0 +0.0000000000e+00 +0.0000000000e+00 +4.4721471353e+01 1.0000100000e+04 1.0000000000e+04 0.0000e+00 -1.0000e+00
  1000022 -1    0    0    0    0 -0.0000000000e+00 -0.0000000000e+00 -4.4721471353e+01 1.0000100000e+04 1.0000000000e+04 0.0000e+00 -1.0000e+00
      -24  1    1    2    0    0 +8.0334967251e+03 -3.7564772814e+02 +5.5166062449e+03 9.7528200014e+03 7.9829010000e+01 0.0000e+00 1.0000e+00
       24  1    1    2    0    0 -4.0656113008e+02 -1.7971693302e+02 +1.0458784824e+02 4.6357460817e+02 7.9829010000e+01 0.0000e+00 -1.0000e+00
       22  1    1    2    0    0 -4.0836698170e+02 -3.4260972447e+02 +8.3400463991e+01 5.3953744303e+02 0.0000000000e+00 0.0000e+00 -1.0000e+00
       22  1    1    2    0    0 -7.2185686133e+03 +8.9797438563e+02 -5.7045945572e+03 9.2442679474e+03 0.0000000000e+00 0.0000e+00 1.0000e+00
</event>
<event>
 6      1 +1.4834189e-01 1.00269600e+04 7.81653100e-03 6.93710000e-02
  1000022 -1    0    0    0    0 +0.0000000000e+00 +0.0000000000e+00 +4.4721471353e+01 1.0000100000e+04 1.0000000000e+04 0.0000e+00 1.0000e+00
  1000022 -1    0    0    0    0 -0.0000000000e+00 -0.0000000000e+00 -4.4721471353e+01 1.0000100000e+04 1.0000000000e+04 0.0000e+00 1.0000e+00
      -24  1    1    2    0    0 -9.1285705944e+03 -3.2145852693e+03 -1.7013701039e+03 9.8267691767e+03 7.9829010000e+01 0.0000e+00 1.0000e+00
       24  1    1    2    0    0 +9.1985261506e+03 +3.3248017367e+03 +1.8273335994e+03 9.9505130866e+03 7.9829010000e+01 0.0000e+00 1.0000e+00
       22  1    1    2    0    0 -8.8977057071e+01 -1.2074762980e+02 -1.3258551274e+02 2.0018947269e+02 0.0000000000e+00 0.0000e+00 1.0000e+00
       22  1    1    2    0    0 +1.9021500820e+01 +1.0531162370e+01 +6.6220172497e+00 2.2728264051e+01 0.0000000000e+00 0.0000e+00 1.0000e+00
</event>
<event>
 6      1 +1.4834189e-01 1.00100100e+04 7.81653100e-03 6.93812100e-02
  1000022 -1    0    0    0    0 +0.0000000000e+00 +0.0000000000e+00 +4.4721471353e+01 1.0000100000e+04 1.0000000000e+04 0.0000e+00 1.0000e+00
  1000022 -1    0    0    0    0 -0.0000000000e+00 -0.0000000000e+00 -4.4721471353e+01 1.0000100000e+04 1.0000000000e+04 0.0000e+00 1.0000e+00
      -24  1    1    2    0    0 -1.8052740498e+03 +7.9192950058e+03 +5.7489785325e+03 9.9514508803e+03 7.9829010000e+01 0.0000e+00 -1.0000e+00
       24  1    1    2    0    0 +1.8897466306e+03 -7.8887687055e+03 -5.7283629496e+03 9.9309782383e+03 7.9829010000e+01 0.0000e+00 -1.0000e+00
       22  1    1    2    0    0 -4.9526708689e+01 -1.8024096264e+01 +2.5521114366e+01 5.8558434048e+01 0.0000000000e+00 0.0000e+00 1.0000e+00
       22  1    1    2    0    0 -3.4945872126e+01 -1.2502204048e+01 -4.6136697318e+01 5.9212447375e+01 0.0000000000e+00 0.0000e+00 -1.0000e+00
</event>
<event>
 6      1 +1.4834189e-01 5.92931600e+03 7.81653100e-03 7.26959300e-02
  1000022 -1    0    0    0    0 +0.0000000000e+00 +0.0000000000e+00 +4.4721471353e+01 1.0000100000e+04 1.0000000000e+04 0.0000e+00 1.0000e+00
  1000022 -1    0    0    0    0 -0.0000000000e+00 -0.0000000000e+00 -4.4721471353e+01 1.0000100000e+04 1.0000000000e+04 0.0000e+00 1.0000e+00
      -24  1    1    2    0    0 +6.8060738707e+03 -1.1416562121e+03 +2.9248328698e+03 7.4958015199e+03 7.9829010000e+01 0.0000e+00 1.0000e+00
       24  1    1    2    0    0 -5.5275046930e+03 +1.7915510521e+03 +2.9025530863e+03 6.4957024557e+03 7.9829010000e+01 0.0000e+00 1.0000e+00
       22  1    1    2    0    0 -1.2904553891e+03 -6.4372926343e+02 -5.8122753309e+03 5.9885062410e+03 0.0000000000e+00 0.0000e+00 1.0000e+00
       22  1    1    2    0    0 +1.1886211485e+01 -6.1655765737e+00 -1.5110625139e+01 2.0189783308e+01 0.0000000000e+00 0.0000e+00 1.0000e+00
</event>
<event>
 6      1 +1.4834189e-01 8.48038400e+03 7.81653100e-03 7.03972300e-02
  1000022 -1    0    0    0    0 +0.0000000000e+00 +0.0000000000e+00 +4.4721471353e+01 1.0000100000e+04 1.0000000000e+04 0.0000e+00 -1.0000e+00
  1000022 -1    0    0    0    0 -0.0000000000e+00 -0.0000000000e+00 -4.4721471353e+01 1.0000100000e+04 1.0000000000e+04 0.0000e+00 -1.0000e+00
      -24  1    1    2    0    0 +6.0034376713e+03 -5.8187315913e+03 +1.9612884857e+03 8.5878941773e+03 7.9829010000e+01 0.0000e+00 -1.0000e+00
       24  1    1    2    0    0 -1.7146510622e+02 +3.0548772113e+02 +3.9097815627e+02 5.3099870050e+02 7.9829010000e+01 0.0000e+00 1.0000e+00
       22  1    1    2    0    0 +1.5396037183e+03 +1.4199765728e+03 -1.0721047832e+03 2.3528964582e+03 0.0000000000e+00 0.0000e+00 -1.0000e+00
       22  1    1    2    0    0 -7.3715762834e+03 +4.0932672974e+03 -1.2801618587e+03 8.5284106640e+03 0.0000000000e+00 0.0000e+00 -1.0000e+00
</event>
<event>
 6      1 +1.4834189e-01 1.00007900e+04 7.81653100e-03 6.93867700e-02
  1000022 -1    0    0    0    0 +0.0000000000e+00 +0.0000000000e+00 +4.4721471353e+01 1.0000100000e+04 1.0000000000e+04 0.0000e+00 1.0000e+00
  1000022 -1    0    0    0    0 -0.0000000000e+00 -0.0000000000e+00 -4.4721471353e+01 1.0000100000e+04 1.0000000000e+04 0.0000e+00 1.0000e+00
      -24  1    1    2    0    0 +8.3741159391e+02 +8.5590461694e+03 +4.4669533724e+03 9.6911596112e+03 7.9829010000e+01 0.0000e+00 -1.0000e+00
       24  1    1    2    0    0 -8.6333038370e+02 -8.7836824741e+03 -4.5963149704e+03 9.9514270904e+03 7.9829010000e+01 0.0000e+00 -1.0000e+00
       22  1    1    2    0    0 +3.6236971241e+01 +2.7128213364e+02 +1.4180450989e+02 3.0824605941e+02 0.0000000000e+00 0.0000e+00 -1.0000e+00
       22  1    1    2    0    0 -1.0318181459e+01 -4.6645828983e+01 -1.2442911941e+01 4.9367239012e+01 0.0000000000e+00 0.0000e+00 1.0000e+00
</event>
<event>
 6      1 +1.4834189e-01 1.00018500e+04 7.81653100e-03 6.93861400e-02
  1000022 -1    0    0    0    0 +0.0000000000e+00 +0.0000000000e+00 +4.4721471353e+01 1.0000100000e+04 1.0000000000e+04 0.0000e+00 -1.0000e+00
  1000022 -1    0    0    0    0 -0.0000000000e+00 -0.0000000000e+00 -4.4721471353e+01 1.0000100000e+04 1.0000000000e+04 0.0000e+00 -1.0000e+00
      -24  1    1    2    0    0 +8.1445800865e+03 -5.2589713865e+03 +1.8587787740e+03 9.8717980141e+03 7.9829010000e+01 0.0000e+00 1.0000e+00
       24  1    1    2    0    0 -8.2413593718e+03 +5.3094595309e+03 -1.8831973342e+03 9.9831442780e+03 7.9829010000e+01 0.0000e+00 1.0000e+00
       22  1    1    2    0    0 +1.0520470955e+02 -6.6945666023e+01 +2.1583203092e+01 1.2655270746e+02 0.0000000000e+00 0.0000e+00 1.0000e+00
       22  1    1    2    0    0 -8.4254243102e+00 +1.6457521584e+01 +2.8353571235e+00 1.8705000442e+01 0.0000000000e+00 0.0000e+00 -1.0000e+00
</event>
<event>
 6      1 +1.4834189e-01 1.06691800e+04 7.81653100e-03 6.89983500e-02
  1000022 -1    0    0    0    0 +0.0000000000e+00 +0.0000000000e+00 +4.4721471353e+01 1.0000100000e+04 1.0000000000e+04 0.0000e+00 -1.0000e+00
  1000022 -1    0    0    0    0 -0.0000000000e+00 -0.0000000000e+00 -4.4721471353e+01 1.0000100000e+04 1.0000000000e+04 0.0000e+00 -1.0000e+00
      -24  1    1    2    0    0 -6.1999475676e+03 +6.5630896746e+03 -2.3554166550e+03 9.3310158186e+03 7.9829010000e+01 0.0000e+00 1.0000e+00
       24  1    1    2    0    0 +4.5145448577e+03 -4.0996129384e+03 +3.7542200942e+03 7.1615977759e+03 7.9829010000e+01 0.0000e+00 1.0000e+00
       22  1    1    2    0    0 +1.4516415052e+03 -2.2520051480e+03 -1.6121531668e+03 3.1269518831e+03 0.0000000000e+00 0.0000e+00 1.0000e+00
       22  1    1    2    0    0 +2.3376120474e+02 -2.1147158813e+02 +2.1334972751e+02 3.8063452242e+02 0.0000000000e+00 0.0000e+00 -1.0000e+00
</event>
<event>
 6      1 +1.4834189e-01 1.00300800e+04 7.81653100e-03 6.93691200e-02
  1000022 -1    0    0    0    0 +0.0000000000e+00 +0.0000000000e+00 +4.4721471353e+01 1.0000100000e+04 1.0000000000e+04 0.0000e+00 1.0000e+00
  1000022 -1    0    0    0    0 -0.0000000000e+00 -0.0000000000e+00 -4.4721471353e+01 1.0000100000e+04 1.0000000000e+04 0.0000e+00 1.0000e+00
      -24  1    1    2    0    0 +6.0096375194e+03 -4.8536499263e+03 +6.2141343429e+03 9.9144086573e+03 7.9829010000e+01 0.0000e+00 -1.0000e+00
       24  1    1    2    0    0 -9.8189496366e+02 +7.9917715763e+02 -1.0604718495e+03 1.6534131557e+03 7.9829010000e+01 0.0000e+00 0.0000e+00
       22  1    1    2    0    0 -5.1411372332e+03 +4.0506245800e+03 -5.1311574952e+03 8.3167078089e+03 0.0000000000e+00 0.0000e+00 -1.0000e+00
       22  1    1    2    0    0 +1.1339467743e+02 +3.8481886796e+00 -2.2504998140e+01 1.1567037808e+02 0.0000000000e+00 0.0000e+00 -1.0000e+00
</event>
<event>
 6      1 +1.4834189e-01 1.03878400e+04 7.81653100e-03 6.91582600e-02
  1000022 -1    0    0    0    0 +0.0000000000e+00 +0.0000000000e+00 +4.4721471353e+01 1.0000100000e+04 1.0000000000e+04 0.0000e+00 1.0000e+00
  1000022 -1    0    0    0    0 -0.0000000000e+00 -0.0000000000e+00 -4.4721471353e+01 1.0000100000e+04 1.0000000000e+04 0.0000e+00 1.0000e+00
      -24  1    1    2    0    0 +1.1225561996e+03 +2.2258015326e+03 -2.6653186860e+03 3.6502905710e+03 7.9829010000e+01 0.0000e+00 -1.0000e+00
       24  1    1    2    0    0 -2.1899663722e+02 -1.4084516135e+01 +1.1823884519e+02 2.6174605261e+02 7.9829010000e+01 0.0000e+00 0.0000e+00
       22  1    1    2    0    0 -6.8533252697e+03 -3.0027926267e+03 +5.6079617986e+03 9.3506185007e+03 0.0000000000e+00 0.0000e+00 -1.0000e+00
       22  1    1    2    0    0 +5.9497657073e+03 +7.9107561022e+02 -3.0608819577e+03 6.7375448757e+03 0.0000000000e+00 0.0000e+00 -1.0000e+00
</event>
<event>
 6      1 +1.4834189e-01 9.90174900e+03 7.81653100e-03 6.94469300e-02
  1000022 -1    0    0    0    0 +0.0000000000e+00 +0.0000000000e+00 +4.4721471353e+01 1.0000100000e+04 1.0000000000e+04 0.0000e+00 -1.0000e+00
  1000022 -1    0    0    0    0 -0.0000000000e+00 -0.0000000000e+00 -4.4721471353e+01 1.0000100000e+04 1.0000000000e+04 0.0000e+00 -1.0000e+00
      -24  1    1    2    0    0 -8.1382739298e+03 +1.2817660410e+03 -5.0271725026e+03 9.6515937949e+03 7.9829010000e+01 0.0000e+00 -1.0000e+00
       24  1    1    2    0    0 +7.9565625066e+00 +6.0404435509e+01 +1.7765460724e+02 2.0407310707e+02 7.9829010000e+01 0.0000e+00 1.0000e+00
       22  1    1    2    0    0 +8.3543538536e+03 -1.3300709321e+03 +5.0426592029e+03 9.8484886573e+03 0.0000000000e+00 0.0000e+00 -1.0000e+00
       22  1    1    2    0    0 -2.2403648636e+02 -1.2099544453e+01 -1.9314130756e+02 2.9604444072e+02 0.0000000000e+00 0.0000e+00 -1.0000e+00
</event>
<event>
 6      1 +1.4834189e-01 1.00778200e+04 7.81653100e-03 6.93404800e-02
  1000022 -1    0    0    0    0 +0.0000000000e+00 +0.0000000000e+00 +4.4721471353e+01 1.0000100000e+04 1.0000000000e+04 0.0000e+00 1.0000e+00
  1000022 -1    0    0    0    0 -0.0000000000e+00 -0.0000000000e+00 -4.4721471353e+01 1.0000100000e+04 1.0000000000e+04 0.0000e+00 1.0000e+00
      -24  1    1    2    0    0 -4.9146380691e+03 -7.2723796153e+03 +4.5780305312e+03 9.8997933733e+03 7.9829010000e+01 0.0000e+00 1.0000e+00
       24  1    1    2    0    0 +4.6883485427e+03 +7.2607942651e+03 -4.6302606260e+03 9.8053776854e+03 7.9829010000e+01 0.0000e+00 1.0000e+00
       22  1    1    2    0    0 +7.6505147668e+01 +8.8329424762e+01 -5.8161243366e+00 1.1699979573e+02 0.0000000000e+00 0.0000e+00 1.0000e+00
       22  1    1    2    0    0 +1.4978437873e+02 -7.6744074634e+01 +5.8046219080e+01 1.7802914551e+02 0.0000000000e+00 0.0000e+00 1.0000e+00
</event>
<event>
 6      1 +1.4834189e-01 1.03375400e+04 7.81653100e-03 6.91873900e-02
  1000022 -1    0    0    0    0 +0.0000000000e+00 +0.0000000000e+00 +4.4721471353e+01 1.0000100000e+04 1.0000000000e+04 0.0000e+00 -1.0000e+00
  1000022 -1    0    0    0    0 -0.0000000000e+00 -0.0000000000e+00 -4.4721471353e+01 1.0000100000e+04 1.0000000000e+04 0.0000e+00 -1.0000e+00
      -24  1    1    2    0    0 +2.9476108447e+03 +1.5170437254e+03 +9.0202132822e+03 9.6104345211e+03 7.9829010000e+01 0.0000e+00 -1.0000e+00
       24  1    1    2    0    0 -5.3136375255e+02 -1.6487133124e+03 -1.2230809700e+03 2.1220044190e+03 7.9829010000e+01 0.0000e+00 -1.0000e+00
       22  1    1    2    0    0 -2.4332239188e+03 +1.2415820673e+02 -7.8459516900e+03 8.2155311344e+03 0.0000000000e+00 0.0000e+00 -1.0000e+00
       22  1    1    2    0    0 +1.6976826632e+01 +7.5113803389e+00 +4.8819377768e+01 5.2229925548e+01 0.0000000000e+00 0.0000e+00 1.0000e+00
</event>
<event>
 6      1 +1.4834189e-01 1.00004900e+04 7.81653100e-03 6.93869600e-02
  1000022 -1    0    0    0    0 +0.0000000000e+00 +0.0000000000e+00 +4.4721471353e+01 1.0000100000e+04 1.0000000000e+04 0.0000e+00 1.0000e+00
  1000022 -1    0    0    0    0 -0.0000000000e+00 -0.0000000000e+00 -4.4721471353e+01 1.0000100000e+04 1.0000000000e+04 0.0000e+00 1.0000e+00
      -24  1    1    2    0    0 -4.3203833586e+03 -7.8968126272e+03 -1.4640883088e+03 9.1200487543e+03 7.9829010000e+01 0.0000e+00 1.0000e+00
       24  1    1    2    0    0 +4.7519814778e+03 +8.6083834097e+03 +1.6071563866e+03 9.9636799033e+03 7.9829010000e+01 0.0000e+00 1.0000e+00
       22  1    1    2    0    0 -4.4901533622e+02 -7.4241606496e+02 -1.4962845025e+02 8.8044594314e+02 0.0000000000e+00 0.0000e+00 1.0000e+00
       22  1    1    2    0    0 +1.7417216990e+01 +3.0845282538e+01 +6.5603725046e+00 3.6025399233e+01 0.0000000000e+00 0.0000e+00 -1.0000e+00
</event>
<event>
 6      1 +1.4834189e-01 1.00085400e+04 7.81653100e-03 6.93821000e-02
  1000022 -1    0    0    0    0 +0.0000000000e+00 +0.0000000000e+00 +4.4721471353e+01 1.0000100000e+04 1.0000000000e+04 0.0000e+00 -1.0000e+00
  1000022 -1    0    0    0    0 -0.0000000000e+00 -0.0000000000e+00 -4.4721471353e+01 1.0000100000e+04 1.0000000000e+04 0.0000e+00 -1.0000e+00
      -24  1    1    2    0    0 +8.7029606325e+03 +1.6865739806e+03 +4.6087860897e+03 9.9916633978e+03 7.9829010000e+01 0.0000e+00 1.0000e+00
       24  1    1    2    0    0 -8.2073056589e+03 -1.5707742602e+03 -4.3575657506e+03 9.4245397711e+03 7.9829010000e+01 0.0000e+00 1.0000e+00
       22  1    1    2    0    0 -4.9078452943e+00 -1.7280750314e+01 +8.7397460464e+00 1.9977348117e+01 0.0000000000e+00 0.0000e+00 1.0000e+00
       22  1    1    2    0    0 -4.9074712827e+02 -9.8518970010e+01 -2.5996008524e+02 5.6401948306e+02 0.0000000000e+00 0.0000e+00 -1.0000e+00
</event>
<event>
 6      1 +1.4834189e-01 1.05537900e+04 7.81653100e-03 6.90633300e-02
  1000022 -1    0    0    0    0 +0.0000000000e+00 +0.0000000000e+00 +4.4721471353e+01 1.0000100000e+04 1.0000000000e+04 0.0000e+00 1.0000e+00
  1000022 -1    0    0    0    0 -0.0000000000e+00 -0.0000000000e+00 -4.4721471353e+01 1.0000100000e+04 1.0000000000e+04 0.0000e+00 1.0000e+00
      -24  1    1    2    0    0 -1.6554879152e+02 -9.2025253605e+03 +1.8078207317e+03 9.3802168356e+03 7.9829010000e+01 0.0000e+00 1.0000e+00
       24  1    1    2    0    0 +1.7089136768e+03 +8.0453547942e+03 -6.2694263864e+02 8.2490938571e+03 7.9829010000e+01 0.0000e+00 1.0000e+00
       22  1    1    2    0    0 -1.5461177776e+03 +1.2217461609e+03 -1.1951813249e+03 2.3046913597e+03 0.0000000000e+00 0.0000e+00 1.0000e+00
       22  1    1    2    0    0 +2.7528923292e+00 -6.4575594615e+01 +1.4303231854e+01 6.6197947684e+01 0.0000000000e+00 0.0000e+00 1.0000e+00
</event>
<event>
 6      1 +1.4834189e-01 1.00078600e+04 7.81653100e-03 6.93825100e-02
  1000022 -1    0    0    0    0 +0.0000000000e+00 +0.0000000000e+00 +4.4721471353e+01 1.0000100000e+04 1.0000000000e+04 0.0000e+00 1.0000e+00
  1000022 -1    0    0    0    0 -0.0000000000e+00 -0.0000000000e+00 -4.4721471353e+01 1.0000100000e+04 1.0000000000e+04 0.0000e+00 1.0000e+00
      -24  1    1    2    0    0 +7.9084911062e+03 +6.0261655882e+03 +1.5872506742e+02 9.9443687377e+03 7.9829010000e+01 0.0000e+00 -1.0000e+00
       24  1    1    2    0    0 -7.6381698685e+03 -5.9360475347e+03 -1.7845647153e+02 9.6755629634e+03 7.9829010000e+01 0.0000e+00 -1.0000e+00
       22  1    1    2    0    0 -3.1143949301e+02 -1.1465104736e+02 +1.6779627044e+01 3.3229651872e+02 0.0000000000e+00 0.0000e+00 -1.0000e+00
       22  1    1    2    0    0 +4.1118255329e+01 +2.4532993860e+01 +2.9517770728e+00 4.7971780214e+01 0.0000000000e+00 0.0000e+00 1.0000e+00
</event>
<event>
 6      1 +1.4834189e-01 1.00020500e+04 7.81653100e-03 6.93860200e-02
  1000022 -1    0    0    0    0 +0.0000000000e+00 +0.0000000000e+00 +4.4721471353e+01 1.0000100000e+04 1.0000000000e+04 0.0000e+00 -1.0000e+00
  1000022 -1    0    0    0    0 -0.0000000000e+00 -0.0000000000e+00 -4.4721471353e+01 1.0000100000e+04 1.0000000000e+04 0.0000e+00 -1.0000e+00
      -24  1    1    2    0    0 -6.6776532419e+03 -6.2250927562e+03 -3.7055252038e+03 9.8529245582e+03 7.9829010000e+01 0.0000e+00 -1.0000e+00
       24  1    1    2    0    0 +6.7441764499e+03 +6.2812201922e+03 +3.7202391271e+03 9.9390238416e+03 7.9829010000e+01 0.0000e+00 -1.0000e+00
       22  1    1    2    0    0 -9.7657818841e+01 -9.1291314611e+01 -5.6741328199e+01 1.4522648529e+02 0.0000000000e+00 0.0000e+00 1.0000e+00
       22  1    1    2    0    0 +3.1134610845e+01 +3.5163878595e+01 +4.2027404873e+01 6.3025114920e+01 0.0000000000e+00 0.0000e+00 1.0000e+00
</event>
<event>
 6      1 +1.4834189e-01 1.00289500e+04 7.81653100e-03 6.93698000e-02
  1000022 -1    0    0    0    0 +0.0000000000e+00 +0.0000000000e+00 +4.4721471353e+01 1.0000100000e+04 1.0000000000e+04 0.0000e+00 1.0000e+00
  1000022 -1    0    0    0    0 -0.0000000000e+00 -0.0000000000e+00 -4.4721471353e+01 1.0000100000e+04 1.0000000000e+04 0.0000e+00 1.0000e+00
      -24  1    1    2    0    0 +1.5297327646e+00 +6.0711590525e+01 -2.1047272722e+02 2.3315161815e+02 7.9829010000e+01 0.0000e+00 -1.0000e+00
       24  1    1    2    0    0 +3.3800951065e+03 +2.4350292782e+03 +9.0143241797e+03 9.9307010629e+03 7.9829010000e+01 0.0000e+00 1.0000e+00
       22  1    1    2    0    0 -3.3942445000e+03 -2.5012097062e+03 -8.8419915145e+03 9.7958031658e+03 0.0000000000e+00 0.0000e+00 1.0000e+00
       22  1    1    2    0    0 +1.2619660685e+01 +5.4688374955e+00 +3.8140062066e+01 4.0544153138e+01 0.0000000000e+00 0.0000e+00 -1.0000e+00
</event>
<event>
 6      1 +1.4834189e-01 1.00632500e+04 7.81653100e-03 6.93492000e-02
  1000022 -1    0    0    0    0 +0.0000000000e+00 +0.0000000000e+00 +4.4721471353e+01 1.0000100000e+04 1.0000000000e+04 0.0000e+00 -1.0000e+00
  1000022 -1    0    0    0    0 -0.0000000000e+00 -0.0000000000e+00 -4.4721471353e+01 1.0000100000e+04 1.0000000000e+04 0.0000e+00 -1.0000e+00
      -24  1    1    2    0    0 -2.4015340707e+02 +4.6910152591e+01 -3.8197510635e+02 4.6059947248e+02 7.9829010000e+01 0.0000e+00 -1.0000e+00
       24  1    1    2    0    0 +5.3052121207e+03 -6.5347700382e+03 +2.6883321234e+03 8.8364018341e+03 7.9829010000e+01 0.0000e+00 1.0000e+00
       22  1    1    2    0    0 -5.4302718234e+03 +7.4944329215e+03 -2.5605812372e+03 9.6026534439e+03 0.0000000000e+00 0.0000e+00 1.0000e+00
       22  1    1    2    0    0 +3.6521310977e+02 -1.0065730359e+03 +2.5422422015e+02 1.1005452495e+03 0.0000000000e+00 0.0000e+00 -1.0000e+00
</event>
<event>
 6      1 +1.4834189e-01 1.06858600e+04 7.81653100e-03 6.89890200e-02
  1000022 -1    0    0    0    0 +0.0000000000e+00 +0.0000000000e+00 +4.4721471353e+01 1.0000100000e+04 1.0000000000e+04 0.0000e+00 -1.0000e+00
  1000022 -1    0    0    0    0 -0.0000000000e+00 -0.0000000000e+00 -4.4721471353e+01 1.0000100000e+04 1.0000000000e+04 0.0000e+00 -1.0000e+00
      -24  1    1    2    0    0 -2.2373068533e+03 +4.4241830750e+03 -2.4970816606e+02 4.9646414449e+03 7.9829010000e+01 0.0000e+00 0.0000e+00
       24  1    1    2    0    0 +3.3472218649e+03 -6.0988609023e+03 -2.0506134500e+03 7.2533707137e+03 7.9829010000e+01 0.0000e+00 -1.0000e+00
       22  1    1    2    0    0 +8.3199184955e+02 -2.2129221238e+03 +2.4885265405e+03 3.4324916761e+03 0.0000000000e+00 0.0000e+00 -1.0000e+00
       22  1    1    2    0    0 -1.9419068611e+03 +3.8875999511e+03 -1.8820492443e+02 4.3496961653e+03 0.0000000000e+00 0.0000e+00 -1.0000e+00
</event>
<event>
 6      1 +1.4834189e-01 1.00176600e+04 7.81653100e-03 6.93766000e-02
  1000022 -1    0    0    0    0 +0.0000000000e+00 +0.0000000000e+00 +4.4721471353e+01 1.0000100000e+04 1.0000000000e+04 0.0000e+00 -1.0000e+00
  1000022 -1    0    0    0    0 -0.0000000000e+00 -0.0000000000e+00 -4.4721471353e+01 1.0000100000e+04 1.0000000000e+04 0.0000e+00 -1.0000e+00
      -24  1    1    2    0    0 -1.5938365042e+02 +6.2103330246e+03 -7.4835324888e+03 9.7264212641e+03 7.9829010000e+01 0.0000e+00 1.0000e+00
       24  1    1    2    0    0 -4.9264925081e+01 -6.3618553843e+03 +7.2915607376e+03 9.6772341929e+03 7.9829010000e+01 0.0000e+00 1.0000e+00
       22  1    1    2    0    0 +1.4538169444e+02 -7.2287094491e+01 +2.9921719544e+02 3.4042942169e+02 0.0000000000e+00 0.0000e+00 -1.0000e+00
       22  1    1    2    0    0 +6.3266881061e+01 +2.2380945420e+02 -1.0724544424e+02 2.5611512126e+02 0.0000000000e+00 0.0000e+00 1.0000e+00
</event>
<event>
 6      1 +1.4834189e-01 1.01983200e+04 7.81653100e-03 6.92688800e-02
  1000022 -1    0    0    0    0 +0.0000000000e+00 +0.0000000000e+00 +4.4721471353e+01 1.0000100000e+04 1.0000000000e+04 0.0000e+00 -1.0000e+00
  1000022 -1    0    0    0    0 -0.0000000000e+00 -0.0000000000e+00 -4.4721471353e+01 1.0000100000e+04 1.0000000000e+04 0.0000e+00 -1.0000e+00
      -24  1    1    2    0    0 +6.4517472704e+03 -7.0409268717e+03 +2.1495879750e+03 9.7891161596e+03 7.9829010000e+01 0.0000e+00 -1.0000e+00
       24  1    1    2    0    0 +1.3926657526e+02 +9.1806629989e+02 +1.7268961668e+01 9.3215438520e+02 7.9829010000e+01 0.0000e+00 -1.0000e+00
       22  1    1    2    0    0 -6.6007697653e+03 +6.1306089897e+03 -2.1696311825e+03 9.2661657414e+03 0.0000000000e+00 0.0000e+00 -1.0000e+00
       22  1    1    2    0    0 +9.7559196562e+00 -7.7484178772e+00 +2.7742458629e+00 1.2763713725e+01 0.0000000000e+00 0.0000e+00 -1.0000e+00
</event>
<event>
 6      1 +1.4834189e-01 1.00110400e+04 7.81653100e-03 6.93805900e-02
  1000022 -1    0    0    0    0 +0.0000000000e+00 +0.0000000000e+00 +4.4721471353e+01 1.0000100000e+04 1.0000000000e+04 0.0000e+00 1.0000e+00
  1000022 -1    0    0    0    0 -0.0000000000e+00 -0.0000000000e+00 -4.4721471353e+01 1.0000100000e+04 1.0000000000e+04 0.0000e+00 1.0000e+00
      -24  1    1    2    0    0 +3.6142250117e+03 +9.0570726013e+03 -2.0434848216e+03 9.9637036000e+03 7.9829010000e+01 0.0000e+00 -1.0000e+00
       24  1    1    2    0    0 -3.6400333472e+03 -9.0721271671e+03 +2.0551216441e+03 9.9891557074e+03 7.9829010000e+01 0.0000e+00 -1.0000e+00
       22  1    1    2    0    0 +9.6295261292e-01 +2.0185170050e+01 -7.8997357096e+00 2.1697331448e+01 0.0000000000e+00 0.0000e+00 1.0000e+00
       22  1    1    2    0    0 +2.4845382916e+01 -5.1306043112e+00 -3.7370868352e+00 2.5643361146e+01 0.0000000000e+00 0.0000e+00 -1.0000e+00
</event>
<event>
 6      1 +1.4834189e-01 1.00066400e+04 7.81653100e-03 6.93832500e-02
  1000022 -1    0    0    0    0 +0.0000000000e+00 +0.0000000000e+00 +4.4721471353e+01 1.0000100000e+04 1.0000000000e+04 0.0000e+00 1.0000e+00
  1000022 -1    0    0    0    0 -0.0000000000e+00 -0.0000000000e+00 -4.4721471353e+01 1.0000100000e+04 1.0000000000e+04 0.0000e+00 1.0000e+00
      -24  1    1    2    0    0 +5.4945131788e+03 +3.8424472619e+03 -6.9922428345e+03 9.6877194715e+03 7.9829010000e+01 0.0000e+00 1.0000e+00
       24  1    1    2    0    0 -5.7160863818e+03 -3.9339848511e+03 +7.1913098534e+03 9.9935574453e+03 7.9829010000e+01 0.0000e+00 1.0000e+00
       22  1    1    2    0    0 +4.6790712241e+00 +2.0032200769e+01 -1.2910140001e+01 2.4286920142e+01 0.0000000000e+00 0.0000e+00 -1.0000e+00
       22  1    1    2    0    0 +2.1689413183e+02 +7.1505388371e+01 -1.8615687897e+02 2.9463616305e+02 0.0000000000e+00 0.0000e+00 -1.0000e+00
</event>
<event>
 6      1 +1.4834189e-01 1.00603400e+04 7.81653100e-03 6.93509500e-02
  1000022 -1    0    0    0    0 +0.0000000000e+00 +0.0000000000e+00 +4.4721471353e+01 1.0000100000e+04 1.0000000000e+04 0.0000e+00 -1.0000e+00
  1000022 -1    0    0    0    0 -0.0000000000e+00 -0.0000000000e+00 -4.4721471353e+01 1.0000100000e+04 1.0000000000e+04 0.0000e+00 -1.0000e+00
      -24  1    1    2    0    0 +4.1992171156e+03 -1.7356694447e+03 +7.6517965320e+03 8.8995694078e+03 7.9829010000e+01 0.0000e+00 1.0000e+00
       24  1    1    2    0    0 -5.0317302499e+03 +1.7567900376e+03 -8.3898638396e+03 9.9398595796e+03 7.9829010000e+01 0.0000e+00 1.0000e+00
       22  1    1    2    0    0 +3.7926871539e+02 +7.7484796219e+01 +1.5813421584e+02 4.1815676766e+02 0.0000000000e+00 0.0000e+00 1.0000e+00
       22  1    1    2    0    0 +4.5324441889e+02 -9.8605389094e+01 +5.7993309172e+02 7.4261424501e+02 0.0000000000e+00 0.0000e+00 1.0000e+00
</event>
<event>
 6      1 +1.4834189e-01 1.01976800e+04 7.81653100e-03 6.92692600e-02
  1000022 -1    0    0    0    0 +0.0000000000e+00 +0.0000000000e+00 +4.4721471353e+01 1.0000100000e+04 1.0000000000e+04 0.0000e+00 1.0000e+00
  1000022 -1    0    0    0    0 -0.0000000000e+00 -0.0000000000e+00 -4.4721471353e+01 1.0000100000e+04 1.0000000000e+04 0.0000e+00 1.0000e+00
      -24  1    1    2    0    0 -3.4441704549e+03 +1.7834200512e+03 -1.9213391034e+03 4.3290661606e+03 7.9829010000e+01 0.0000e+00 -1.0000e+00
       24  1    1    2    0    0 +7.8780909489e+03 -3.8445582909e+03 +1.2065609907e+03 8.8491303272e+03 7.9829010000e+01 0.0000e+00 -1.0000e+00
       22  1    1    2    0    0 +8.6431503465e+02 -3.8812761255e+02 +1.0615562465e+02 9.5339002480e+02 0.0000000000e+00 0.0000e+00 -1.0000e+00
       22  1    1    2    0    0 -5.2982355287e+03 +2.4492658522e+03 +6.0862248805e+02 5.8686134875e+03 0.0000000000e+00 0.0000e+00 -1.0000e+00
</event>
<event>
 6      1 +1.4834189e-01 1.00271300e+04 7.81653100e-03 6.93709000e-02
  1000022 -1    0    0    0    0 +0.0000000000e+00 +0.0000000000e+00 +4.4721471353e+01 1.0000100000e+04 1.0000000000e+04 0.0000e+00 -1.0000e+00
  1000022 -1    0    0    0    0 -0.0000000000e+00 -0.0000000000e+00 -4.4721471353e+01 1.0000100000e+04 1.0000000000e+04 0.0000e+00 -1.0000e+00
      -24  1    1    2    0    0 -6.1304206858e+01 +9.2230460250e+02 -2.2160020017e+02 9.5387803472e+02 7.9829010000e+01 0.0000e+00 -1.0000e+00
       24  1    1    2    0    0 +2.1529017026e+03 -8.4320475289e+03 +4.7353254623e+03 9.9077793261e+03 7.9829010000e+01 0.0000e+00 -1.0000e+00
       22  1    1    2    0    0 +1.2116135790e+01 -5.4537936614e+01 +3.3792116759e+01 6.5292376520e+01 0.0000000000e+00 0.0000e+00 1.0000e+00
       22  1    1    2    0    0 -2.1037136315e+03 +7.5642808630e+03 -4.5475173789e+03 9.0732502627e+03 0.0000000000e+00 0.0000e+00 -1.0000e+00
</event>
<event>
 6      1 +1.4834189e-01 1.01352400e+04 7.81653100e-03 6.93062300e-02
  1000022 -1    0    0    0    0 +0.0000000000e+00 +0.0000000000e+00 +4.4721471353e+01 1.0000100000e+04 1.0000000000e+04 0.0000e+00 -1.0000e+00
  1000022 -1    0    0    0    0 -0.0000000000e+00 -0.0000000000e+00 -4.4721471353e+01 1.0000100000e+04 1.0000000000e+04 0.0000e+00 -1.0000e+00
      -24  1    1    2    0    0 +2.1228745219e+03 +5.6852753546e+03 -7.2568092526e+03 9.4602645466e+03 7.9829010000e+01 0.0000e+00 1.0000e+00
       24  1    1    2    0    0 -2.6511590833e+03 -6.0530774538e+03 +7.2665538228e+03 9.8222995412e+03 7.9829010000e+01 0.0000e+00 1.0000e+00
       22  1    1    2    0    0 -1.7956098955e+01 -2.6925137617e+01 +2.7788389100e+01 4.2656524637e+01 0.0000000000e+00 0.0000e+00 1.0000e+00
       22  1    1    2    0    0 +5.4624066032e+02 +3.9472723690e+02 -3.7532959324e+01 6.7497938752e+02 0.0000000000e+00 0.0000e+00 -1.0000e+00
</event>
<event>
 6      1 +1.4834189e-01 1.03961900e+04 7.81653100e-03 6.91534400e-02
  1000022 -1    0    0    0    0 +0.0000000000e+00 +0.0000000000e+00 +4.4721471353e+01 1.0000100000e+04 1.0000000000e+04 0.0000e+00 -1.0000e+00
  1000022 -1    0    0    0    0 -0.0000000000e+00 -0.0000000000e+00 -4.4721471353e+01 1.0000100000e+04 1.0000000000e+04 0.0000e+00 -1.0000e+00
      -24  1    1    2    0    0 -6.1630317320e+02 -6.1899245695e+02 -7.3387131758e+03 7.3909447982e+03 7.9829010000e+01 0.0000e+00 -1.0000e+00
       24  1    1    2    0    0 -1.2302612360e+03 +1.3599926730e+03 +3.6307739257e+03 4.0684167375e+03 7.9829010000e+01 0.0000e+00 -1.0000e+00
       22  1    1    2    0    0 +3.2485522800e+03 -5.1705643836e+02 +5.4055724319e+03 6.3277683738e+03 0.0000000000e+00 0.0000e+00 -1.0000e+00
       22  1    1    2    0    0 -1.4019878708e+03 -2.2394377765e+02 -1.6976331818e+03 2.2130700904e+03 0.0000000000e+00 0.0000e+00 -1.0000e+00
</event>
<event>
 6      1 +1.4834189e-01 1.00028700e+04 7.81653100e-03 6.93855200e-02
  1000022 -1    0    0    0    0 +0.0000000000e+00 +0.0000000000e+00 +4.4721471353e+01 1.0000100000e+04 1.0000000000e+04 0.0000e+00 1.0000e+00
  1000022 -1    0    0    0    0 -0.0000000000e+00 -0.0000000000e+00 -4.4721471353e+01 1.0000100000e+04 1.0000000000e+04 0.0000e+00 1.0000e+00
      -24  1    1    2    0    0 -4.6398696563e+03 -7.0115678754e+03 -2.5623838879e+03 8.7899179950e+03 7.9829010000e+01 0.0000e+00 -1.0000e+00
       24  1    1    2    0    0 +5.2755071507e+03 +7.9798575499e+03 +2.9036561179e+03 9.9973343315e+03 7.9829010000e+01 0.0000e+00 -1.0000e+00
       22  1    1    2    0    0 -6.3677698433e+00 -4.7260457448e+01 -5.3132986318e+00 4.7982605946e+01 0.0000000000e+00 0.0000e+00 -1.0000e+00
       22  1    1    2    0    0 -6.2926972462e+02 -9.2102921706e+02 -3.3595893139e+02 1.1649650675e+03 0.0000000000e+00 0.0000e+00 -1.0000e+00
</event>
<event>
 6      1 +1.4834189e-01 1.00048500e+04 7.81653100e-03 6.93843300e-02
  1000022 -1    0    0    0    0 +0.0000000000e+00 +0.0000000000e+00 +4.4721471353e+01 1.0000100000e+04 1.0000000000e+04 0.0000e+00 1.0000e+00
  1000022 -1    0    0    0    0 -0.0000000000e+00 -0.0000000000e+00 -4.4721471353e+01 1.0000100000e+04 1.0000000000e+04 0.0000e+00 1.0000e+00
      -24  1    1    2    0    0 +9.5149782820e+02 -1.2072104879e+02 +1.7668541016e+03 2.0119810575e+03 7.9829010000e+01 0.0000e+00 1.0000e+00
       24  1    1    2    0    0 -4.0299462139e+03 +1.2133964952e+03 -8.1551554334e+03 9.1774577283e+03 7.9829010000e+01 0.0000e+00 1.0000e+00
       22  1    1    2    0    0 +3.4279818049e+03 -1.2072854837e+03 +7.1188050694e+03 7.9928707677e+03 0.0000000000e+00 0.0000e+00 1.0000e+00
       22  1    1    2    0    0 -3.4953341920e+02 +1.1461003728e+02 -7.3050373757e+02 8.1789044645e+02 0.0000000000e+00 0.0000e+00 1.0000e+00
</event>
<event>
 6      1 +1.4834189e-01 1.00035600e+04 7.81653100e-03 6.93851000e-02
  1000022 -1    0    0    0    0 +0.0000000000e+00 +0.0000000000e+00 +4.4721471353e+01 1.0000100000e+04 1.0000000000e+04 0.0000e+00 1.0000e+00
  1000022 -1    0    0    0    0 -0.0000000000e+00 -0.0000000000e+00 -4.4721471353e+01 1.0000100000e+04 1.0000000000e+04 0.0000e+00 1.0000e+00
      -24  1    1    2    0    0 +6.6267414697e+03 +5.6079139249e+03 -4.6925393368e+03 9.8685712843e+03 7.9829010000e+01 0.0000e+00 -1.0000e+00
       24  1    1    2    0    0 -1.7418085710e+03 -1.6099348837e+03 +1.0606846455e+03 2.5994637939e+03 7.9829010000e+01 0.0000e+00 1.0000e+00
       22  1    1    2    0    0 +1.0402923676e+02 +3.3116640099e+01 -6.6952495662e+01 1.2806807029e+02 0.0000000000e+00 0.0000e+00 1.0000e+00
       22  1    1    2    0    0 -4.9889621355e+03 -4.0310956812e+03 +3.6988071869e+03 7.4040968515e+03 0.0000000000e+00 0.0000e+00 -1.0000e+00
</event>
<event>
 6      1 +1.4834189e-01 1.00135700e+04 7.81653100e-03 6.93790700e-02
  1000022 -1    0    0    0    0 +0.0000000000e+00 +0.0000000000e+00 +4.4721471353e+01 1.0000100000e+04 1.0000000000e+04 0.0000e+00 1.0000e+00
  1000022 -1    0    0    0    0 -0.0000000000e+00 -0.0000000000e+00 -4.4721471353e+01 1.0000100000e+04 1.0000000000e+04 0.0000e+00 1.0000e+00
      -24  1    1    2    0    0 -7.3996141080e+01 -3.0393821637e+01 -4.6200936151e+01 1.2209181229e+02 7.9829010000e+01 0.0000e+00 0.0000e+00
       24  1    1    2    0    0 +9.7148828665e+03 +1.8571669099e+03 +1.0174085788e+03 9.9433148863e+03 7.9829010000e+01 0.0000e+00 -1.0000e+00
       22  1    1    2    0    0 +2.9074413957e+01 +2.4929656747e+01 -2.0238450191e+01 4.3317481443e+01 0.0000000000e+00 0.0000e+00 1.0000e+00
       22  1    1    2    0    0 -9.6699611394e+03 -1.8517027450e+03 -9.5096919249e+02 9.8914758200e+03 0.0000000000e+00 0.0000e+00 -1.0000e+00
</event>
<event>
 6      1 +1.4834189e-01 1.00001100e+04 7.81653100e-03 6.93871900e-02
  1000022 -1    0    0    0    0 +0.0000000000e+00 +0.0000000000e+00 +4.4721471353e+01 1.0000100000e+04 1.0000000000e+04 0.0000e+00 -1.0000e+00
  1000022 -1    0    0    0    0 -0.0000000000e+00 -0.0000000000e+00 -4.4721471353e+01 1.0000100000e+04 1.0000000000e+04 0.0000e+00 -1.0000e+00
      -24  1    1    2    0    0 -7.1621388717e+03 -6.2542473189e+03 +1.2007197033e+03 9.5843593015e+03 7.9829010000e+01 0.0000e+00 1.0000e+00
       24  1    1    2    0    0 +7.4691125299e+03 +6.5010356774e+03 -1.2444812139e+03 9.9802912295e+03 7.9829010000e+01 0.0000e+00 1.0000e+00
       22  1    1    2    0    0 -3.1983078886e+02 -2.6185704988e+02 +4.4399176448e+01 4.1573084435e+02 0.0000000000e+00 0.0000e+00 -1.0000e+00
       22  1    1    2    0    0 +1.2857130655e+01 +1.5068691328e+01 -6.3766586720e-01 1.9818624694e+01 0.0000000000e+00 0.0000e+00 1.0000e+00
</event>
<event>
 6      1 +1.4834189e-01 1.13504500e+04 7.81653100e-03 6.86308200e-02
  1000022 -1    0    0    0    0 +0.0000000000e+00 +0.0000000000e+00 +4.4721471353e+01 1.0000100000e+04 1.0000000000e+04 0.0000e+00 -1.0000e+00
  1000022 -1    0    0    0    0 -0.0000000000e+00 -0.0000000000e+00 -4.4721471353e+01 1.0000100000e+04 1.0000000000e+04 0.0000e+00 -1.0000e+00
      -24  1    1    2    0    0 -8.1414237399e+03 +5.9015623278e+02 +2.8602051685e+03 8.6497520872e+03 7.9829010000e+01 0.0000e+00 1.0000e+00
       24  1    1    2    0    0 +9.4190191080e+02 +2.8658333272e+02 -3.2433328109e+02 1.0396508857e+03 7.9829010000e+01 0.0000e+00 1.0000e+00
       22  1    1    2    0    0 +5.8412459402e+03 +2.3179947480e+03 -2.6900006968e+03 6.8358874723e+03 0.0000000000e+00 0.0000e+00 1.0000e+00
       22  1    1    2    0    0 +1.3582758890e+03 -3.1947343135e+03 +1.5412880934e+02 3.4749095548e+03 0.0000000000e+00 0.0000e+00 1.0000e+00
</event>
<event>
 6      1 +1.4834189e-01 1.00198900e+04 7.81653100e-03 6.93752600e-02
  1000022 -1    0    0    0    0 +0.0000000000e+00 +0.0000000000e+00 +4.4721471353e+01 1.0000100000e+04 1.0000000000e+04 0.0000e+00 -1.0000e+00
  1000022 -1    0    0    0    0 -0.0000000000e+00 -0.0000000000e+00 -4.4721471353e+01 1.0000100000e+04 1.0000000000e+04 0.0000e+00 -1.0000e+00
      -24  1    1    2    0    0 +1.4475724486e+03 -9.4722184015e+03 +2.6215006640e+03 9.9346376804e+03 7.9829010000e+01 0.0000e+00 -1.0000e+00
       24  1    1    2    0    0 -8.5670605147e+02 +4.1390525488e+03 -1.6494044095e+03 4.5379079803e+03 7.9829010000e+01 0.0000e+00 -1.0000e+00
       22  1    1    2    0    0 +2.2449931260e+01 -2.0697310857e+01 +3.3960602587e+01 4.5669471404e+01 0.0000000000e+00 0.0000e+00 -1.0000e+00
       22  1    1    2    0    0 -6.1331632844e+02 +5.3538631635e+03 -1.0060568571e+03 5.4819848679e+03 0.0000000000e+00 0.0000e+00 -1.0000e+00
</event>
<event>
 6      1 +1.4834189e-01 1.00185200e+04 7.81653100e-03 6.93760800e-02
  1000022 -1    0    0    0    0 +0.0000000000e+00 +0.0000000000e+00 +4.4721471353e+01 1.0000100000e+04 1.0000000000e+04 0.0000e+00 -1.0000e+00
  1000022 -1    0    0    0    0 -0.0000000000e+00 -0.0000000000e+00 -4.4721471353e+01 1.0000100000e+04 1.0000000000e+04 0.0000e+00 -1.0000e+00
      -24  1    1    2    0    0 -6.0229545936e+03 +1.1880915964e+03 +7.8701955819e+03 9.9816779574e+03 7.9829010000e+01 0.0000e+00 -1.0000e+00
       24  1    1    2    0    0 +5.8952916965e+03 -1.2793726224e+03 -7.7203316361e+03 9.7980177452e+03 7.9829010000e+01 0.0000e+00 -1.0000e+00
       22  1    1    2    0    0 +1.0938851233e+02 +9.2142529193e+01 -1.2744475287e+02 1.9156789227e+02 0.0000000000e+00 0.0000e+00 -1.0000e+00
       22  1    1    2    0    0 +1.8274384834e+01 -8.6150315236e-01 -2.2419192920e+01 2.8936405096e+01 0.0000000000e+00 0.0000e+00 1.0000e+00
</event>
<event>
 6      1 +1.4834189e-01 1.00876600e+04 7.81653100e-03 6.93345900e-02
  1000022 -1    0    0    0    0 +0.0000000000e+00 +0.0000000000e+00 +4.4721471353e+01 1.0000100000e+04 1.0000000000e+04 0.0000e+00 1.0000e+00
  1000022 -1    0    0    0    0 -0.0000000000e+00 -0.0000000000e+00 -4.4721471353e+01 1.0000100000e+04 1.0000000000e+04 0.0000e+00 1.0000e+00
      -24  1    1    2    0    0 +7.0069570597e+03 +1.6764585634e+03 -6.0783064406e+03 9.4265657802e+03 7.9829010000e+01 0.0000e+00 1.0000e+00
       24  1    1    2    0    0 -5.8586331359e+03 -1.9645561164e+03 +5.4034933415e+03 8.2089692360e+03 7.9829010000e+01 0.0000e+00 1.0000e+00
       22  1    1    2    0    0 +1.3112567151e+02 +4.8189538292e+02 -4.3316053082e+02 6.6109390201e+02 0.0000000000e+00 0.0000e+00 -1.0000e+00
       22  1    1    2    0    0 -1.2794495954e+03 -1.9379782991e+02 +1.1079736300e+03 1.7035710818e+03 0.0000000000e+00 0.0000e+00 1.0000e+00
</event>
<event>
 6      1 +1.4834189e-01 1.00001100e+04 7.81653100e-03 6.93871900e-02
  1000022 -1    0    0    0    0 +0.0000000000e+00 +0.0000000000e+00 +4.4721471353e+01 1.0000100000e+04 1.0000000000e+04 0.0000e+00 1.0000e+00
  1000022 -1    0    0    0    0 -0.0000000000e+00 -0.0000000000e+00 -4.4721471353e+01 1.0000100000e+04 1.0000000000e+04 0.0000e+00 1.0000e+00
      -24  1    1    2    0    0 +8.9980232966e+03 -2.9570197211e+03 -3.0602900667e+03 9.9539005842e+03 7.9829010000e+01 0.0000e+00 -1.0000e+00
       24  1    1    2    0    0 -9.0169489894e+03 +2.9630852453e+03 +3.0672101006e+03 9.9749382815e+03 7.9829010000e+01 0.0000e+00 -1.0000e+00
       22  1    1    2    0    0 -2.3180777388e+01 +6.9829969091e+00 +6.8821762613e+00 2.5168929978e+01 0.0000000000e+00 0.0000e+00 1.0000e+00
       22  1    1    2    0    0 +4.2106470174e+01 -1.3048521072e+01 -1.3802210158e+01 4.6192204298e+01 0.0000000000e+00 0.0000e+00 -1.0000e+00
</event>
<event>
 6      1 +1.4834189e-01 1.00267100e+04 7.81653100e-03 6.93711500e-02
  1000022 -1    0    0    0    0 +0.0000000000e+00 +0.0000000000e+00 +4.4721471353e+01 1.0000100000e+04 1.0000000000e+04 0.0000e+00 -1.0000e+00
  1000022 -1    0    0    0    0 -0.0000000000e+00 -0.0000000000e+00 -4.4721471353e+01 1.0000100000e+04 1.0000000000e+04 0.0000e+00 -1.0000e+00
      -24  1    1    2    0    0 -7.3354089839e+03 -4.4471685518e+03 +5.0871035547e+03 9.9734912812e+03 7.9829010000e+01 0.0000e+00 -1.0000e+00
       24  1    1    2    0    0 +6.7596900626e+03 +4.2158895967e+03 -4.5874273541e+03 9.1933670238e+03 7.9829010000e+01 0.0000e+00 -1.0000e+00
       22  1    1    2    0    0 +4.7127428873e+02 +2.7879345699e+02 -3.7363920850e+02 6.6289630034e+02 0.0000000000e+00 0.0000e+00 1.0000e+00
       22  1    1    2    0    0 +1.0444463262e+02 -4.7514501947e+01 -1.2603699207e+02 1.7044539462e+02 0.0000000000e+00 0.0000e+00 1.0000e+00
</event>
<event>
 6      1 +1.4834189e-01 1.01121500e+04 7.81653100e-03 6.93199800e-02
  1000022 -1    0    0    0    0 +0.0000000000e+00 +0.0000000000e+00 +4.4721471353e+01 1.0000100000e+04 1.0000000000e+04 0.0000e+00 -1.0000e+00
  1000022 -1    0    0    0    0 -0.0000000000e+00 -0.0000000000e+00 -4.4721471353e+01 1.0000100000e+04 1.0000000000e+04 0.0000e+00 -1.0000e+00
      -24  1    1    2    0    0 -1.6642704842e+03 +1.2171550410e+03 +2.1617425378e+03 2.9884387411e+03 7.9829010000e+01 0.0000e+00 1.0000e+00
       24  1    1    2    0    0 +3.5790628741e+03 -4.9632110600e+02 -8.9089839916e+03 9.6141767267e+03 7.9829010000e+01 0.0000e+00 1.0000e+00
       22  1    1    2    0    0 -1.8290810376e+03 -4.9014534679e+02 +6.8674212720e+03 7.1237107486e+03 0.0000000000e+00 0.0000e+00 1.0000e+00
       22  1    1    2    0    0 -8.5711352411e+01 -2.3068858824e+02 -1.2017981819e+02 2.7387378367e+02 0.0000000000e+00 0.0000e+00 -1.0000e+00
</event>
<event>
 6      1 +1.4834189e-01 1.05140800e+04 7.81653100e-03 6.90858800e-02
  1000022 -1    0    0    0    0 +0.0000000000e+00 +0.0000000000e+00 +4.4721471353e+01 1.0000100000e+04 1.0000000000e+04 0.0000e+00 -1.0000e+00
  1000022 -1    0    0    0    0 -0.0000000000e+00 -0.0000000000e+00 -4.4721471353e+01 1.0000100000e+04 1.0000000000e+04 0.0000e+00 -1.0000e+00
      -24  1    1    2    0    0 -7.7448093290e+03 -5.1068569993e+03 -1.9507058233e+02 9.2793580143e+03 7.9829010000e+01 0.0000e+00 -1.0000e+00
       24  1    1    2    0    0 +8.0498094098e+03 +4.8562618844e+03 -9.4250574201e+02 9.4486719050e+03 7.9829010000e+01 0.0000e+00 -1.0000e+00
       22  1    1    2    0    0 -3.3383202385e+02 +2.5578660483e+02 +1.1608956902e+03 1.2347264519e+03 0.0000000000e+00 0.0000e+00 1.0000e+00
       22  1    1    2    0    0 +2.8831943082e+01 -5.1914899800e+00 -2.3319365902e+01 3.7443628779e+01 0.0000000000e+00 0.0000e+00 1.0000e+00
</event>
<event>
 6      1 +1.4834189e-01 1.00004900e+04 7.81653100e-03 6.93869600e-02
  1000022 -1    0    0    0    0 +0.0000000000e+00 +0.0000000000e+00 +4.4721471353e+01 1.0000100000e+04 1.0000000000e+04 0.0000e+00 1.0000e+00
  1000022 -1    0    0    0    0 -0.0000000000e+00 -0.0000000000e+00 -4.4721471353e+01 1.0000100000e+04 1.0000000000e+04 0.0000e+00 1.0000e+00
      -24  1    1    2    0    0 +6.6398163126e+03 +3.1811290465e+03 -6.6740985600e+03 9.9376409140e+03 7.9829010000e+01 0.0000e+00 1.0000e+00
       24  1    1    2    0    0 -6.0295166257e+03 -2.8439933353e+03 +6.0144146278e+03 8.9790269415e+03 7.9829010000e+01 0.0000e+00 1.0000e+00
       22  1    1    2    0    0 +3.7736405068e+01 +1.5411392193e+01 -4.6813509731e+01 6.2072956834e+01 0.0000000000e+00 0.0000e+00 -1.0000e+00
       22  1    1    2    0    0 -6.4803609198e+02 -3.5254710342e+02 +7.0649744198e+02 1.0214591877e+03 0.0000000000e+00 0.0000e+00 -1.0000e+00
</event>
<event>
 6      1 +1.4834189e-01 1.00001200e+04 7.81653100e-03 6.93871800e-02
  1000022 -1    0    0    0    0 +0.0000000000e+00 +0.0000000000e+00 +4.4721471353e+01 1.0000100000e+04 1.0000000000e+04 0.0000e+00 1.0000e+00
  1000022 -1    0    0    0    0 -0.0000000000e+00 -0.0000000000e+00 -4.4721471353e+01 1.0000100000e+04 1.0000000000e+04 0.0000e+00 1.0000e+00
      -24  1    1    2    0    0 -6.0611753040e+03 -4.2696277723e+03 +6.3570762877e+03 9.7665940316e+03 7.9829010000e+01 0.0000e+00 1.0000e+00
       24  1    1    2    0    0 +6.1665528328e+03 +4.3434572864e+03 -6.4724726644e+03 9.9393797644e+03 7.9829010000e+01 0.0000e+00 1.0000e+00
       22  1    1    2    0    0 +3.9668877908e+01 +2.6478440848e+01 -3.7618610008e+01 6.0744444381e+01 0.0000000000e+00 0.0000e+00 -1.0000e+00
       22  1    1    2    0    0 -1.4504640671e+02 -1.0030795491e+02 +1.5301498669e+02 2.3348175961e+02 0.0000000000e+00 0.0000e+00 1.0000e+00
</event>
<event>
 6      1 +1.4834189e-01 1.00005600e+04 7.81653100e-03 6.93869200e-02
  1000022 -1    0    0    0    0 +0.0000000000e+00 +0.0000000000e+00 +4.4721471353e+01 1.0000100000e+04 1.0000000000e+04 0.0000e+00 1.0000e+00
  1000022 -1    0    0    0    0 -0.0000000000e+00 -0.0000000000e+00 -4.4721471353e+01 1.0000100000e+04 1.0000000000e+04 0.0000e+00 1.0000e+00
      -24  1    1    2    0    0 -5.6828236698e+03 +7.6389839758e+03 -1.4916834905e+02 9.5224568737e+03 7.9829010000e+01 0.0000e+00 -1.0000e+00
       24  1    1    2    0    0 +5.8461208597e+03 -7.8728491037e+03 +1.4324533336e+02 9.8074346295e+03 7.9829010000e+01 0.0000e+00 -1.0000e+00
       22  1    1    2    0    0 -2.8866768997e+02 +3.7982436230e+02 -1.0620077248e+01 4.7718797917e+02 0.0000000000e+00 0.0000e+00 1.0000e+00
       22  1    1    2    0    0 +1.2537050010e+02 -1.4595923438e+02 +1.6543092941e+01 1.9312051761e+02 0.0000000000e+00 0.0000e+00 -1.0000e+00
</event>
<event>
 6      1 +1.4834189e-01 1.00201900e+04 7.81653100e-03 6.93750800e-02
  1000022 -1    0    0    0    0 +0.0000000000e+00 +0.0000000000e+00 +4.4721471353e+01 1.0000100000e+04 1.0000000000e+04 0.0000e+00 1.0000e+00
  1000022 -1    0    0    0    0 -0.0000000000e+00 -0.0000000000e+00 -4.4721471353e+01 1.0000100000e+04 1.0000000000e+04 0.0000e+00 1.0000e+00
      -24  1    1    2    0    0 +6.6117210293e+02 -7.7382158474e+03 -5.7634858345e+03 9.6716738306e+03 7.9829010000e+01 0.0000e+00 -1.0000e+00
       24  1    1    2    0    0 -9.2295030195e+02 +7.8453924629e+03 +5.7664076426e+03 9.7805853571e+03 7.9829010000e+01 0.0000e+00 -1.0000e+00
       22  1    1    2    0    0 +1.4523678986e+02 +1.5407032604e+02 +1.1214917741e+02 2.3960139501e+02 0.0000000000e+00 0.0000e+00 -1.0000e+00
       22  1    1    2    0    0 +1.1654140916e+02 -2.6124694152e+02 -1.1507098549e+02 3.0833941721e+02 0.0000000000e+00 0.0000e+00 -1.0000e+00
</event>
<event>
 6      1 +1.4834189e-01 1.00628000e+04 7.81653100e-03 6.93494700e-02
  1000022 -1    0    0    0    0 +0.0000000000e+00 +0.0000000000e+00 +4.4721471353e+01 1.0000100000e+04 1.0000000000e+04 0.0000e+00 -1.0000e+00
  1000022 -1    0    0    0    0 -0.0000000000e+00 -0.0000000000e+00 -4.4721471353e+01 1.0000100000e+04 1.0000000000e+04 0.0000e+00 -1.0000e+00
      -24  1    1    2    0    0 -6.4894900429e+03 -2.4809921156e+03 +6.5484206115e+03 9.5476168791e+03 7.9829010000e+01 0.0000e+00 1.0000e+00
       24  1    1    2    0    0 +6.7741371418e+03 +2.6924928786e+03 -6.6876641538e+03 9.8929104121e+03 7.9829010000e+01 0.0000e+00 1.0000e+00
       22  1    1    2    0    0 -2.1019585554e+01 -1.0872112916e+02 -1.2884035327e+02 1.6988803235e+02 0.0000000000e+00 0.0000e+00 -1.0000e+00
       22  1    1    2    0    0 -2.6362751338e+02 -1.0277963383e+02 +2.6808389553e+02 3.8978467644e+02 0.0000000000e+00 0.0000e+00 -1.0000e+00
</event>
<event>
 6      1 +1.4834189e-01 1.00007000e+04 7.81653100e-03 6.93868300e-02
  1000022 -1    0    0    0    0 +0.0000000000e+00 +0.0000000000e+00 +4.4721471353e+01 1.0000100000e+04 1.0000000000e+04 0.0000e+00 -1.0000e+00
  1000022 -1    0    0    0    0 -0.0000000000e+00 -0.0000000000e+00 -4.4721471353e+01 1.0000100000e+04 1.0000000000e+04 0.0000e+00 -1.0000e+00
      -24  1    1    2    0    0 +4.8097423196e+03 -8.4761706248e+03 -1.8268259617e+03 9.9157831464e+03 7.9829010000e+01 0.0000e+00 1.0000e+00
       24  1    1    2    0    0 -4.2322358967e+03 +7.4405027554e+03 +1.6247500105e+03 8.7131559843e+03 7.9829010000e+01 0.0000e+00 1.0000e+00
       22  1    1    2    0    0 -6.1980813564e+02 +1.1031404704e+03 +2.3154042109e+02 1.2863483156e+03 0.0000000000e+00 0.0000e+00 -1.0000e+00
       22  1    1    2    0    0 +4.2301712758e+01 -6.7472601039e+01 -2.9464469808e+01 8.4912553691e+01 0.0000000000e+00 0.0000e+00 -1.0000e+00
</event>
<event>
 6      1 +1.4834189e-01 1.00008800e+04 7.81653100e-03 6.93867200e-02
  1000022 -1    0    0    0    0 +0.0000000000e+00 +0.0000000000e+00 +4.4721471353e+01 1.0000100000e+04 1.0000000000e+04 0.0000e+00 -1.0000e+00
  1000022 -1    0    0    0    0 -0.0000000000e+00 -0.0000000000e+00 -4.4721471353e+01 1.0000100000e+04 1.0000000000e+04 0.0000e+00 -1.0000e+00
      -24  1    1    2    0    0 -5.6614795115e+02 +6.3088034767e+03 -7.7003079531e+03 9.9710902139e+03 7.9829010000e+01 0.0000e+00 -1.0000e+00
       24  1    1    2    0    0 +2.9546977943e+02 -3.7897041391e+03 +4.7305880011e+03 6.0691016930e+03 7.9829010000e+01 0.0000e+00 -1.0000e+00
       22  1    1    2    0    0 +2.7341716725e+02 -2.5387198826e+03 +2.9898254285e+03 3.9317822527e+03 0.0000000000e+00 0.0000e+00 -1.0000e+00
       22  1    1    2    0    0 -2.7389955342e+00 +1.9620545001e+01 -2.0105476509e+01 2.8225840436e+01 0.0000000000e+00 0.0000e+00 -1.0000e+00
</event>
<event>
 6      1 +1.4834189e-01 1.03225700e+04 7.81653100e-03 6.91960900e-02
  1000022 -1    0    0    0    0 +0.0000000000e+00 +0.0000000000e+00 +4.4721471353e+01 1.0000100000e+04 1.0000000000e+04 0.0000e+00 1.0000e+00
  1000022 -1    0    0    0    0 -0.0000000000e+00 -0.0000000000e+00 -4.4721471353e+01 1.0000100000e+04 1.0000000000e+04 0.0000e+00 1.0000e+00
      -24  1    1    2    0    0 -9.0793374199e+03 -2.8623356825e+03 -3.3565413550e+02 9.5260889095e+03 7.9829010000e+01 0.0000e+00 -1.0000e+00
       24  1    1    2    0    0 +1.7726459922e+03 +1.0156979932e+03 +2.4682253372e+02 2.0594198846e+03 7.9829010000e+01 0.0000e+00 -1.0000e+00
       22  1    1    2    0    0 +7.4865592995e+03 +1.2715560197e+03 +6.0970286512e+02 7.6182125489e+03 0.0000000000e+00 0.0000e+00 -1.0000e+00
       22  1    1    2    0    0 -1.7986787188e+02 +5.7508166955e+02 -5.2087126333e+02 7.9647865694e+02 0.0000000000e+00 0.0000e+00 -1.0000e+00
</event>
<event>
 6      1 +1.4834189e-01 1.00014600e+04 7.81653100e-03 6.93863700e-02
  1000022 -1    0    0    0    0 +0.0000000000e+00 +0.0000000000e+00 +4.4721471353e+01 1.0000100000e+04 1.0000000000e+04 0.0000e+00 1.0000e+00
  1000022 -1    0    0    0    0 -0.0000000000e+00 -0.0000000000e+00 -4.4721471353e+01 1.0000100000e+04 1.0000000000e+04 0.0000e+00 1.0000e+00
      -24  1    1    2    0    0 +2.1779151552e+03 +1.2706642218e+03 -2.8862035695e+03 3.8333334975e+03 7.9829010000e+01 0.0000e+00 -1.0000e+00
       24  1    1    2    0    0 -5.1611890359e+03 -3.1122269131e+03 +6.5117103819e+03 8.8731377422e+03 7.9829010000e+01 0.0000e+00 -1.0000e+00
       22  1    1    2    0    0 +3.6782803384e+03 +2.1283181685e+03 -4.4668472269e+03 6.1654041735e+03 0.0000000000e+00 0.0000e+00 -1.0000e+00
       22  1    1    2    0    0 -6.9500645767e+02 -2.8675547717e+02 +8.4134041451e+02 1.1283245867e+03 0.0000000000e+00 0.0000e+00 -1.0000e+00
</event>
<event>
 6      1 +1.4834189e-01 1.00326600e+04 7.81653100e-03 6.93675700e-02
  1000022 -1    0    0    0    0 +0.0000000000e+00 +0.0000000000e+00 +4.4721471353e+01 1.0000100000e+04 1.0000000000e+04 0.0000e+00 -1.0000e+00
  1000022 -1    0    0    0    0 -0.0000000000e+00 -0.0000000000e+00 -4.4721471353e+01 1.0000100000e+04 1.0000000000e+04 0.0000e+00 -1.0000e+00
      -24  1    1    2    0    0 -5.4879692948e+02 +4.3502676279e+03 -7.5520612216e+03 8.7330411581e+03 7.9829010000e+01 0.0000e+00 -1.0000e+00
       24  1    1    2    0    0 +2.3893872470e+02 -4.9686296758e+03 +8.6371976486e+03 9.9675437526e+03 7.9829010000e+01 0.0000e+00 -1.0000e+00
       22  1    1    2    0    0 -1.7816629164e+01 +9.9155941320e+01 -1.6995242200e+02 1.9756811159e+02 0.0000000000e+00 0.0000e+00 -1.0000e+00
       22  1    1    2    0    0 +3.2767483395e+02 +5.1920610659e+02 -9.1518400499e+02 1.1020469776e+03 0.0000000000e+00 0.0000e+00 1.0000e+00
</event>
<event>
 6      1 +1.4834189e-01 1.00074900e+04 7.81653100e-03 6.93827300e-02
  1000022 -1    0    0    0    0 +0.0000000000e+00 +0.0000000000e+00 +4.4721471353e+01 1.0000100000e+04 1.0000000000e+04 0.0000e+00 1.0000e+00
  1000022 -1    0    0    0    0 -0.0000000000e+00 -0.0000000000e+00 -4.4721471353e+01 1.0000100000e+04 1.0000000000e+04 0.0000e+00 1.0000e+00
      -24  1    1    2    0    0 -7.2872148809e+03 +5.2264114030e+03 +1.1121486777e+03 9.0367098119e+03 7.9829010000e+01 0.0000e+00 -1.0000e+00
       24  1    1    2    0    0 +1.7320822972e+02 -1.7538941369e+02 +1.5401604612e+01 2.5956197245e+02 7.9829010000e+01 0.0000e+00 0.0000e+00
       22  1    1    2    0    0 -7.4573412010e+02 +5.5385491334e+02 +2.2595717813e+02 9.5599753622e+02 0.0000000000e+00 0.0000e+00 -1.0000e+00
       22  1    1    2    0    0 +7.8597407713e+03 -5.6048769026e+03 -1.3535074605e+03 9.7479306794e+03 0.0000000000e+00 0.0000e+00 -1.0000e+00
</event>
<event>
 6      1 +1.4834189e-01 1.00003000e+04 7.81653100e-03 6.93870700e-02
  1000022 -1    0    0    0    0 +0.0000000000e+00 +0.0000000000e+00 +4.4721471353e+01 1.0000100000e+04 1.0000000000e+04 0.0000e+00 -1.0000e+00
  1000022 -1    0    0    0    0 -0.0000000000e+00 -0.0000000000e+00 -4.4721471353e+01 1.0000100000e+04 1.0000000000e+04 0.0000e+00 -1.0000e+00
      -24  1    1    2    0    0 -7.6215594138e+03 -2.6884906966e+03 +5.5485194832e+03 9.8034989289e+03 7.9829010000e+01 0.0000e+00 1.0000e+00
       24  1    1    2    0    0 +7.2974836829e+03 +2.5415975126e+03 -5.2563032605e+03 9.3460196156e+03 7.9829010000e+01 0.0000e+00 1.0000e+00
       22  1    1    2    0    0 -1.5707507424e+02 -7.2027712018e+01 +9.3338765180e+01 1.9639932620e+02 0.0000000000e+00 0.0000e+00 -1.0000e+00
       22  1    1    2    0    0 +4.8115080515e+02 +2.1892089602e+02 -3.8555498785e+02 6.5428212926e+02 0.0000000000e+00 0.0000e+00 1.0000e+00
</event>
<event>
 6      1 +1.4834189e-01 1.00066900e+04 7.81653100e-03 6.93832100e-02
  1000022 -1    0    0    0    0 +0.0000000000e+00 +0.0000000000e+00 +4.4721471353e+01 1.0000100000e+04 1.0000000000e+04 0.0000e+00 -1.0000e+00
  1000022 -1    0    0    0    0 -0.0000000000e+00 -0.0000000000e+00 -4.4721471353e+01 1.0000100000e+04 1.0000000000e+04 0.0000e+00 -1.0000e+00
      -24  1    1    2    0    0 -6.0719208272e+03 +5.2182684212e+03 -5.8634847096e+03 9.9239797187e+03 7.9829010000e+01 0.0000e+00 -1.0000e+00
       24  1    1    2    0    0 +6.1351010931e+03 -5.2632898236e+03 +5.8755534568e+03 9.9935072064e+03 7.9829010000e+01 0.0000e+00 -1.0000e+00
       22  1    1    2    0    0 -1.2776286151e+01 +1.5568641705e+01 +6.9649418680e+00 2.1310244193e+01 0.0000000000e+00 0.0000e+00 -1.0000e+00
       22  1    1    2    0    0 -5.0403979772e+01 +2.9452760722e+01 -1.9033689051e+01 6.1402830634e+01 0.0000000000e+00 0.0000e+00 1.0000e+00
</event>
<event>
 6      1 +1.4834189e-01 1.00773300e+04 7.81653100e-03 6.93407700e-02
  1000022 -1    0    0    0    0 +0.0000000000e+00 +0.0000000000e+00 +4.4721471353e+01 1.0000100000e+04 1.0000000000e+04 0.0000e+00 1.0000e+00
  1000022 -1    0    0    0    0 -0.0000000000e+00 -0.0000000000e+00 -4.4721471353e+01 1.0000100000e+04 1.0000000000e+04 0.0000e+00 1.0000e+00
      -24  1    1    2    0    0 -5.9895376030e+03 -7.5249320290e+03 +1.2942602587e+03 9.7046712993e+03 7.9829010000e+01 0.0000e+00 1.0000e+00
       24  1    1    2    0    0 +6.1312590629e+03 +7.7158029687e+03 -1.1536789696e+03 9.9228675786e+03 7.9829010000e+01 0.0000e+00 1.0000e+00
       22  1    1    2    0    0 -3.0047094307e+01 -4.3405090913e+01 -1.7650102432e+02 1.8422660334e+02 0.0000000000e+00 0.0000e+00 1.0000e+00
       22  1    1    2    0    0 -1.1167436560e+02 -1.4746584872e+02 +3.5919735261e+01 1.8843451874e+02 0.0000000000e+00 0.0000e+00 -1.0000e+00
</event>
<event>
 6      1 +1.4834189e-01 7.31111300e+03 7.81653100e-03 7.13321300e-02
  1000022 -1    0    0    0    0 +0.0000000000e+00 +0.0000000000e+00 +4.4721471353e+01 1.0000100000e+04 1.0000000000e+04 0.0000e+00 -1.0000e+00
  1000022 -1    0    0    0    0 -0.0000000000e+00 -0.0000000000e+00 -4.4721471353e+01 1.0000100000e+04 1.0000000000e+04 0.0000e+00 -1.0000e+00
      -24  1    1    2    0    0 -1.3014647779e+03 -3.8567465045e+03 +7.3439468288e+02 4.1369085546e+03 7.9829010000e+01 0.0000e+00 -1.0000e+00
       24  1    1    2    0    0 -1.1591634294e+02 +4.4203926170e+02 -6.2769459081e+02 7.8051808282e+02 7.9829010000e+01 0.0000e+00 1.0000e+00
       22  1    1    2    0    0 -5.4357638189e+03 +5.2547501814e+03 +1.7241345934e+03 7.7545191894e+03 0.0000000000e+00 0.0000e+00 1.0000e+00
       22  1    1    2    0    0 +6.8531449397e+03 -1.8400429386e+03 -1.8308346855e+03 7.3282541732e+03 0.0000000000e+00 0.0000e+00 1.0000e+00
</event>
<event>
 6      1 +1.4834189e-01 1.03135400e+04 7.81653100e-03 6.92013400e-02
  1000022 -1    0    0    0    0 +0.0000000000e+00 +0.0000000000e+00 +4.4721471353e+01 1.0000100000e+04 1.0000000000e+04 0.0000e+00 -1.0000e+00
  1000022 -1    0    0    0    0 -0.0000000000e+00 -0.0000000000e+00 -4.4721471353e+01 1.0000100000e+04 1.0000000000e+04 0.0000e+00 -1.0000e+00
      -24  1    1    2    0    0 -1.2969002584e+03 -1.0368262299e+02 +2.3793444265e+02 1.3250229569e+03 7.9829010000e+01 0.0000e+00 -1.0000e+00
       24  1    1    2    0    0 +9.5915851684e+03 -4.3176522131e+02 -1.2806636853e+03 9.6866609002e+03 7.9829010000e+01 0.0000e+00 1.0000e+00
       22  1    1    2    0    0 -7.8198714291e+02 +8.0552935933e+02 -6.2965966652e+02 1.2871879179e+03 0.0000000000e+00 0.0000e+00 1.0000e+00
       22  1    1    2    0    0 -7.5126977671e+03 -2.7008151502e+02 +1.6723889092e+03 7.7013282250e+03 0.0000000000e+00 0.0000e+00 1.0000e+00
</event>
<event>
 6      1 +1.4834189e-01 1.00210400e+04 7.81653100e-03 6.93745700e-02
  1000022 -1    0    0    0    0 +0.0000000000e+00 +0.0000000000e+00 +4.4721471353e+01 1.0000100000e+04 1.0000000000e+04 0.0000e+00 1.0000e+00
  1000022 -1    0    0    0    0 -0.0000000000e+00 -0.0000000000e+00 -4.4721471353e+01 1.0000100000e+04 1.0000000000e+04 0.0000e+00 1.0000e+00
      -24  1    1    2    0    0 -9.0967041180e+03 -2.9444081649e+03 -2.8561698015e+03 9.9791604786e+03 7.9829010000e+01 0.0000e+00 1.0000e+00
       24  1    1    2    0    0 +8.3821055529e+03 +2.9186193235e+03 +2.5295947418e+03 9.2294774762e+03 7.9829010000e+01 0.0000e+00 1.0000e+00
       22  1    1    2    0    0 +6.7328041682e+02 +2.0662300793e+01 +3.2941214942e+02 7.4983052388e+02 0.0000000000e+00 0.0000e+00 1.0000e+00
       22  1    1    2    0    0 +4.1318148278e+01 +5.1265406756e+00 -2.8370897209e+00 4.1731521354e+01 0.0000000000e+00 0.0000e+00 1.0000e+00
</event>
<event>
 6      1 +1.4834189e-01 1.00386800e+04 7.81653100e-03 6.93639500e-02
  1000022 -1    0    0    0    0 +0.0000000000e+00 +0.0000000000e+00 +4.4721471353e+01 1.0000100000e+04 1.0000000000e+04 0.0000e+00 1.0000e+00
  1000022 -1    0    0    0    0 -0.0000000000e+00 -0.0000000000e+00 -4.4721471353e+01 1.0000100000e+04 1.0000000000e+04 0.0000e+00 1.0000e+00
      -24  1    1    2    0    0 -1.1639076135e+02 -2.2769986989e+02 -4.8746909345e+01 2.7229207128e+02 7.9829010000e+01 0.0000e+00 -1.0000e+00
       24  1    1    2    0    0 -2.1772974732e+03 +9.6376128612e+03 +1.2653888038e+03 9.9615153187e+03 7.9829010000e+01 0.0000e+00 -1.0000e+00
       22  1    1    2    0    0 -2.3095863651e-01 -2.0934435830e+01 -1.7227249165e+01 2.7112396781e+01 0.0000000000e+00 0.0000e+00 1.0000e+00
       22  1    1    2    0    0 +2.2939191931e+03 -9.3889785555e+03 -1.1994146453e+03 9.7392802132e+03 0.0000000000e+00 0.0000e+00 -1.0000e+00
</event>
<event>
 6      1 +1.4834189e-01 9.96451100e+03 7.81653100e-03 6.94087300e-02
  1000022 -1    0    0    0    0 +0.0000000000e+00 +0.0000000000e+00 +4.4721471353e+01 1.0000100000e+04 1.0000000000e+04 0.0000e+00 1.0000e+00
  1000022 -1    0    0    0    0 -0.0000000000e+00 -0.0000000000e+00 -4.4721471353e+01 1.0000100000e+04 1.0000000000e+04 0.0000e+00 1.0000e+00
      -24  1    1    2    0    0 -1.3626738910e+03 +9.6090197509e+03 -4.8594715187e+02 9.7176467322e+03 7.9829010000e+01 0.0000e+00 -1.0000e+00
       24  1    1    2    0    0 +5.0687363799e+01 -1.6684516442e+01 +3.7585299648e+01 1.0311599064e+02 7.9829010000e+01 0.0000e+00 1.0000e+00
       22  1    1    2    0    0 +1.2622408336e+03 -9.8328375963e+03 +3.6555932108e+02 9.9202611223e+03 0.0000000000e+00 0.0000e+00 -1.0000e+00
       22  1    1    2    0    0 +4.9745693505e+01 +2.4050236188e+02 +8.2802531146e+01 2.5917615488e+02 0.0000000000e+00 0.0000e+00 -1.0000e+00
</event>
<event>
 6      1 +1.4834189e-01 1.00754000e+04 7.81653100e-03 6.93419300e-02
  1000022 -1    0    0    0    0 +0.0000000000e+00 +0.0000000000e+00 +4.4721471353e+01 1.0000100000e+04 1.0000000000e+04 0.0000e+00 -1.0000e+00
  1000022 -1    0    0    0    0 -0.0000000000e+00 -0.0000000000e+00 -4.4721471353e+01 1.0000100000e+04 1.0000000000e+04 0.0000e+00 -1.0000e+00
      -24  1    1    2    0    0 +1.2876757173e+03 +3.9024878130e+03 +8.8745300481e+03 9.7801419279e+03 7.9829010000e+01 0.0000e+00 1.0000e+00
       24  1    1    2    0    0 -1.5279191185e+03 -3.9774152254e+03 -7.9415428708e+03 9.0127046189e+03 7.9829010000e+01 0.0000e+00 1.0000e+00
       22  1    1    2    0    0 +1.8392348338e+02 +5.3675231269e+00 -1.0466395687e+03 1.0626904746e+03 0.0000000000e+00 0.0000e+00 1.0000e+00
       22  1    1    2    0    0 +5.6319917842e+01 +6.9559889285e+01 +1.1365239134e+02 1.4466297868e+02 0.0000000000e+00 0.0000e+00 1.0000e+00
</event>
<event>
 6      1 +1.4834189e-01 1.00009400e+04 7.81653100e-03 6.93866900e-02
  1000022 -1    0    0    0    0 +0.0000000000e+00 +0.0000000000e+00 +4.4721471353e+01 1.0000100000e+04 1.0000000000e+04 0.0000e+00 1.0000e+00
  1000022 -1    0    0    0    0 -0.0000000000e+00 -0.0000000000e+00 -4.4721471353e+01 1.0000100000e+04 1.0000000000e+04 0.0000e+00 1.0000e+00
      -24  1    1    2    0    0 +6.6100714871e+03 -6.7757542340e+03 +2.6447418349e+03 9.8287803184e+03 7.9829010000e+01 0.0000e+00 -1.0000e+00
       24  1    1    2    0    0 -6.4507521783e+03 +6.6929140189e+03 -2.5775829072e+03 9.6466371365e+03 7.9829010000e+01 0.0000e+00 -1.0000e+00
       22  1    1    2    0    0 +1.1003828944e+02 -1.2754681659e+02 +2.6196495993e+01 1.7047836217e+02 0.0000000000e+00 0.0000e+00 -1.0000e+00
       22  1    1    2    0    0 -2.6935759829e+02 +2.1038703166e+02 -9.3355423727e+01 3.5430418285e+02 0.0000000000e+00 0.0000e+00 1.0000e+00
</event>
<event>
 6      1 +1.4834189e-01 1.00189500e+04 7.81653100e-03 6.93758200e-02
  1000022 -1    0    0    0    0 +0.0000000000e+00 +0.0000000000e+00 +4.4721471353e+01 1.0000100000e+04 1.0000000000e+04 0.0000e+00 1.0000e+00
  1000022 -1    0    0    0    0 -0.0000000000e+00 -0.0000000000e+00 -4.4721471353e+01 1.0000100000e+04 1.0000000000e+04 0.0000e+00 1.0000e+00
      -24  1    1    2    0    0 -8.9553332152e+03 -1.0364540191e+03 +4.2326251380e+03 9.9596043174e+03 7.9829010000e+01 0.0000e+00 -1.0000e+00
       24  1    1    2    0    0 +8.2721880171e+03 +9.7453636048e+02 -4.0031371140e+03 9.2417690478e+03 7.9829010000e+01 0.0000e+00 -1.0000e+00
       22  1    1    2    0    0 -3.0604528442e+01 -9.7677857887e+00 -4.9901036370e+01 5.9347790449e+01 0.0000000000e+00 0.0000e+00 1.0000e+00
       22  1    1    2    0    0 +7.1374972658e+02 +7.1685444372e+01 -1.7958698763e+02 7.3947884436e+02 0.0000000000e+00 0.0000e+00 -1.0000e+00
</event>
<event>
 6      1 +1.4834189e-01 1.00095700e+04 7.81653100e-03 6.93814800e-02
  1000022 -1    0    0    0    0 +0.0000000000e+00 +0.0000000000e+00 +4.4721471353e+01 1.0000100000e+04 1.0000000000e+04 0.0000e+00 1.0000e+00
  1000022 -1    0    0    0    0 -0.0000000000e+00 -0.0000000000e+00 -4.4721471353e+01 1.0000100000e+04 1.0000000000e+04 0.0000e+00 1.0000e+00
      -24  1    1    2    0    0 +1.0912285208e+03 -4.6900058232e+03 +8.0091530472e+03 9.3455786076e+03 7.9829010000e+01 0.0000e+00 1.0000e+00
       24  1    1    2    0    0 -8.3534719269e+01 +2.0591727943e+02 -6.3788210399e+02 6.8018102349e+02 7.9829010000e+01 0.0000e+00 0.0000e+00
       22  1    1    2    0    0 +1.8165511144e+01 -3.3611660564e+02 +5.5026295353e+02 6.4505323534e+02 0.0000000000e+00 0.0000e+00 -1.0000e+00
       22  1    1    2    0    0 -1.0258593127e+03 +4.8202051494e+03 -7.9215338967e+03 9.3293871336e+03 0.0000000000e+00 0.0000e+00 1.0000e+00
</event>
<event>
 6      1 +1.4834189e-01 1.00004200e+04 7.81653100e-03 6.93870000e-02
  1000022 -1    0    0    0    0 +0.0000000000e+00 +0.0000000000e+00 +4.4721471353e+01 1.0000100000e+04 1.0000000000e+04 0.0000e+00 -1.0000e+00
  1000022 -1    0    0    0    0 -0.0000000000e+00 -0.0000000000e+00 -4.4721471353e+01 1.0000100000e+04 1.0000000000e+04 0.0000e+00 -1.0000e+00
      -24  1    1    2    0    0 -1.5038607026e+03 -9.7578959675e+03 +1.3283189917e+03 9.9623759585e+03 7.9829010000e+01 0.0000e+00 1.0000e+00
       24  1    1    2    0    0 +1.1206784695e+03 +7.9485739774e+03 -1.0227078185e+03 8.0924688729e+03 7.9829010000e+01 0.0000e+00 1.0000e+00
       22  1    1    2    0    0 +4.0232321241e+02 +1.8408573650e+03 -2.9945308990e+02 1.9079549152e+03 0.0000000000e+00 0.0000e+00 1.0000e+00
       22  1    1    2    0    0 -1.9140979276e+01 -3.1535374932e+01 -6.1580833239e+00 3.7400253341e+01 0.0000000000e+00 0.0000e+00 -1.0000e+00
</event>
<event>
 6      1 +1.4834189e-01 1.00194600e+04 7.81653100e-03 6.93755200e-02
  1000022 -1    0    0    0    0 +0.0000000000e+00 +0.0000000000e+00 +4.4721471353e+01 1.0000100000e+04 1.0000000000e+04 0.0000e+00 1.0000e+00
  1000022 -1    0    0    0    0 -0.0000000000e+00 -0.0000000000e+00 -4.4721471353e+01 1.0000100000e+04 1.0000000000e+04 0.0000e+00 1.0000e+00
      -24  1    1    2    0    0 +5.4190479655e+03 -2.5731011073e+03 +5.4041079755e+03 8.0745083963e+03 7.9829010000e+01 0.0000e+00 -1.0000e+00
       24  1    1    2    0    0 -7.7777585721e+02 +4.1870771331e+02 -9.0929412481e+02 1.2702125450e+03 7.9829010000e+01 0.0000e+00 1.0000e+00
       22  1    1    2    0    0 +1.6133120578e+03 -3.3187039104e+02 +1.0343744956e+03 1.9449535597e+03 0.0000000000e+00 0.0000e+00 1.0000e+00
       22  1    1    2    0    0 -6.2545841661e+03 +2.4862637851e+03 -5.5291883462e+03 8.7105254990e+03 0.0000000000e+00 0.0000e+00 -1.0000e+00
</event>
<event>
 6      1 +1.4834189e-01 1.00578400e+04 7.81653100e-03 6.93524400e-02
  1000022 -1    0    0    0    0 +0.0000000000e+00 +0.0000000000e+00 +4.4721471353e+01 1.0000100000e+04 1.0000000000e+04 0.0000e+00 -1.0000e+00
  1000022 -1    0    0    0    0 -0.0000000000e+00 -0.0000000000e+00 -4.4721471353e+01 1.0000100000e+04 1.0000000000e+04 0.0000e+00 -1.0000e+00
      -24  1    1    2    0    0 -2.8799370982e+03 -1.5970926046e+03 -5.1204490848e+03 6.0885231361e+03 7.9829010000e+01 0.0000e+00 1.0000e+00
       24  1    1    2    0    0 +4.6199305660e+03 +1.8741429426e+03 +8.6016216294e+03 9.9423557334e+03 7.9829010000e+01 0.0000e+00 1.0000e+00
       22  1    1    2    0    0 +1.1330943829e+01 -7.5373077705e+01 -1.0969123147e+01 7.7005277698e+01 0.0000000000e+00 0.0000e+00 -1.0000e+00
       22  1    1    2    0    0 -1.7513244116e+03 -2.0167726025e+02 -3.4702034214e+03 3.8923158528e+03 0.0000000000e+00 0.0000e+00 1.0000e+00
</event>
<event>
 6      1 +1.4834189e-01 1.04414100e+04 7.81653100e-03 6.91274200e-02
  1000022 -1    0    0    0    0 +0.0000000000e+00 +0.0000000000e+00 +4.4721471353e+01 1.0000100000e+04 1.0000000000e+04 0.0000e+00 1.0000e+00
  1000022 -1    0    0    0    0 -0.0000000000e+00 -0.0000000000e+00 -4.4721471353e+01 1.0000100000e+04 1.0000000000e+04 0.0000e+00 1.0000e+00
      -24  1    1    2    0    0 +6.2588332980e+03 +3.0376230886e+03 +4.5086438294e+03 8.2906206120e+03 7.9829010000e+01 0.0000e+00 1.0000e+00
       24  1    1    2    0    0 -7.0363226900e+03 -4.7941602588e+03 -3.8799624997e+03 9.3570450065e+03 7.9829010000e+01 0.0000e+00 1.0000e+00
       22  1    1    2    0    0 +9.2675473271e+02 +1.8629539249e+03 -5.4443152050e+02 2.1507852848e+03 0.0000000000e+00 0.0000e+00 1.0000e+00
       22  1    1    2    0    0 -1.4926534076e+02 -1.0641675470e+02 -8.4249809220e+01 2.0174909662e+02 0.0000000000e+00 0.0000e+00 1.0000e+00
</event>
<event>
 6      1 +1.4834189e-01 1.00340300e+04 7.81653100e-03 6.93667400e-02
  1000022 -1    0    0    0    0 +0.0000000000e+00 +0.0000000000e+00 +4.4721471353e+01 1.0000100000e+04 1.0000000000e+04 0.0000e+00 -1.0000e+00
  1000022 -1    0    0    0    0 -0.0000000000e+00 -0.0000000000e+00 -4.4721471353e+01 1.0000100000e+04 1.0000000000e+04 0.0000e+00 -1.0000e+00
      -24  1    1    2    0    0 +1.8439085111e+02 -6.3712293727e+03 -7.0381730271e+03 9.4957261932e+03 7.9829010000e+01 0.0000e+00 1.0000e+00
       24  1    1    2    0    0 -2.7466620024e+02 +3.4313766974e+02 +5.6171994553e+02 7.1769558309e+02 7.9829010000e+01 0.0000e+00 0.0000e+00
       22  1    1    2    0    0 +5.5169512117e+01 +6.3282107849e+03 +6.8370217129e+03 9.3163384071e+03 0.0000000000e+00 0.0000e+00 1.0000e+00
       22  1    1    2    0    0 +3.5105837015e+01 -3.0011908193e+02 -3.6056863139e+02 4.7043981663e+02 0.0000000000e+00 0.0000e+00 1.0000e+00
</event>
<event>
 6      1 +1.4834189e-01 1.01170500e+04 7.81653100e-03 6.93170600e-02
  1000022 -1    0    0    0    0 +0.0000000000e+00 +0.0000000000e+00 +4.4721471353e+01 1.0000100000e+04 1.0000000000e+04 0.0000e+00 1.0000e+00
  1000022 -1    0    0    0    0 -0.0000000000e+00 -0.0000000000e+00 -4.4721471353e+01 1.0000100000e+04 1.0000000000e+04 0.0000e+00 1.0000e+00
      -24  1    1    2    0    0 +8.1119474756e+02 +2.9254594567e+02 -3.2221520843e+02 9.2402129855e+02 7.9829010000e+01 0.0000e+00 -1.0000e+00
       24  1    1    2    0    0 -8.7687724870e+03 +3.0866411785e+03 -1.3773423307e+03 9.3979875112e+03 7.9829010000e+01 0.0000e+00 -1.0000e+00
       22  1    1    2    0    0 -3.7067236213e+02 -4.5315191411e+01 -3.0973381240e+02 4.8516646748e+02 0.0000000000e+00 0.0000e+00 1.0000e+00
       22  1    1    2    0    0 +8.3282501016e+03 -3.3338719328e+03 +2.0092913515e+03 9.1930247228e+03 0.0000000000e+00 0.0000e+00 -1.0000e+00
</event>
<event>
 6      1 +1.4834189e-01 1.00064600e+04 7.81653100e-03 6.93833600e-02
  1000022 -1    0    0    0    0 +0.0000000000e+00 +0.0000000000e+00 +4.4721471353e+01 1.0000100000e+04 1.0000000000e+04 0.0000e+00 -1.0000e+00
  1000022 -1    0    0    0    0 -0.0000000000e+00 -0.0000000000e+00 -4.4721471353e+01 1.0000100000e+04 1.0000000000e+04 0.0000e+00 -1.0000e+00
      -24  1    1    2    0    0 +1.4718285609e+03 -5.2531724330e+03 -3.5621439936e+03 6.5159298972e+03 7.9829010000e+01 0.0000e+00 -1.0000e+00
       24  1    1    2    0    0 -2.1617890659e+03 +8.1577524332e+03 +5.3453952827e+03 9.9900890950e+03 7.9829010000e+01 0.0000e+00 -1.0000e+00
       22  1    1    2    0    0 +6.7471085472e+02 -2.9049556620e+03 -1.7891850401e+03 3.4778132848e+03 0.0000000000e+00 0.0000e+00 -1.0000e+00
       22  1    1    2    0    0 +1.5249650344e+01 +3.7566183332e-01 +5.9337510407e+00 1.6367723081e+01 0.0000000000e+00 0.0000e+00 1.0000e+00
</event>
<event>
 6      1 +1.4834189e-01 1.00006900e+04 7.81653100e-03 6.93868400e-02
  1000022 -1    0    0    0    0 +0.0000000000e+00 +0.0000000000e+00 +4.4721471353e+01 1.0000100000e+04 1.0000000000e+04 0.0000e+00 1.0000e+00
  1000022 -1    0    0    0    0 -0.0000000000e+00 -0.0000000000e+00 -4.4721471353e+01 1.0000100000e+04 1.0000000000e+04 0.0000e+00 1.0000e+00
      -24  1    1    2    0    0 +7.0506090268e+03 +4.9675463270e+03 +3.7165852745e+03 9.3918572675e+03 7.9829010000e+01 0.0000e+00 -1.0000e+00
       24  1    1    2    0    0 -5.8296840476e+03 -4.1439533931e+03 -2.9735151895e+03 7.7463366227e+03 7.9829010000e+01 0.0000e+00 -1.0000e+00
       22  1    1    2    0    0 -1.6851844060e+03 -1.1537051324e+03 -9.5457535102e+02 2.2543504864e+03 0.0000000000e+00 0.0000e+00 -1.0000e+00
       22  1    1    2    0    0 +4.6425942683e+02 +3.3011219851e+02 +2.1150526605e+02 6.0765562334e+02 0.0000000000e+00 0.0000e+00 -1.0000e+00
</event>
<event>
 6      1 +1.4834189e-01 6.44667100e+03 7.81653100e-03 7.21450200e-02
  1000022 -1    0    0    0    0 +0.0000000000e+00 +0.0000000000e+00 +4.4721471353e+01 1.0000100000e+04 1.0000000000e+04 0.0000e+00 1.0000e+00
  1000022 -1    0    0    0    0 -0.0000000000e+00 -0.0000000000e+00 -4.4721471353e+01 1.0000100000e+04 1.0000000000e+04 0.0000e+00 1.0000e+00
      -24  1    1    2    0    0 -4.8458279765e+03 -7.5786012666e+02 +6.9365234107e+02 4.9541827772e+03 7.9829010000e+01 0.0000e+00 -1.0000e+00
       24  1    1    2    0    0 +1.4689950616e+03 +8.4219791409e+02 -2.1710019903e+02 1.7090198901e+03 7.9829010000e+01 0.0000e+00 -1.0000e+00
       22  1    1    2    0    0 -7.8704721671e+02 +4.4255962965e+03 -4.2049105370e+03 6.1552106808e+03 0.0000000000e+00 0.0000e+00 -1.0000e+00
       22  1    1    2    0    0 +4.1638801316e+03 -4.5099340839e+03 +3.7283583950e+03 7.1817866519e+03 0.0000000000e+00 0.0000e+00 -1.0000e+00
</event>
<event>
 6      1 +1.4834189e-01 1.01949300e+04 7.81653100e-03 6.92708800e-02
  1000022 -1    0    0    0    0 +0.0000000000e+00 +0.0000000000e+00 +4.4721471353e+01 1.0000100000e+04 1.0000000000e+04 0.0000e+00 1.0000e+00
  1000022 -1    0    0    0    0 -0.0000000000e+00 -0.0000000000e+00 -4.4721471353e+01 1.0000100000e+04 1.0000000000e+04 0.0000e+00 1.0000e+00
      -24  1    1    2    0    0 -5.9658126854e+03 -6.2113609889e+03 +8.0325872587e+02 8.6500591665e+03 7.9829010000e+01 0.0000e+00 1.0000e+00
       24  1    1    2    0    0 +2.9135527720e+03 +1.0999373893e+03 +1.0422924437e+03 3.2850263659e+03 7.9829010000e+01 0.0000e+00 -1.0000e+00
       22  1    1    2    0    0 +4.1926121306e+03 +5.2233532073e+03 -1.6986166952e+03 6.9098997014e+03 0.0000000000e+00 0.0000e+00 1.0000e+00
       22  1    1    2    0    0 -1.1403522172e+03 -1.1192960764e+02 -1.4693447431e+02 1.1552147663e+03 0.0000000000e+00 0.0000e+00 -1.0000e+00
</event>
<event>
 6      1 +1.4834189e-01 1.04442100e+04 7.81653100e-03 6.91258100e-02
  1000022 -1    0    0    0    0 +0.0000000000e+00 +0.0000000000e+00 +4.4721471353e+01 1.0000100000e+04 1.0000000000e+04 0.0000e+00 -1.0000e+00
  1000022 -1    0    0    0    0 -0.0000000000e+00 -0.0000000000e+00 -4.4721471353e+01 1.0000100000e+04 1.0000000000e+04 0.0000e+00 -1.0000e+00
      -24  1    1    2    0    0 +6.0469630215e+02 +8.6457963653e+03 +1.7985532193e+03 8.8519274037e+03 7.9829010000e+01 0.0000e+00 1.0000e+00
       24  1    1    2    0    0 +4.9421719954e+01 -7.2956564868e+03 -3.1998495347e+03 7.9670857781e+03 7.9829010000e+01 0.0000e+00 1.0000e+00
       22  1    1    2    0    0 -6.5246307220e+02 -2.0374582157e+03 +1.2486868560e+03 2.4771279551e+03 0.0000000000e+00 0.0000e+00 1.0000e+00
       22  1    1    2    0    0 -1.6549499029e+00 +6.8731833727e+02 +1.5260945942e+02 7.0405886310e+02 0.0000000000e+00 0.0000e+00 1.0000e+00
</event>
<event>
 6      1 +1.4834189e-01 1.07964900e+04 7.81653100e-03 6.89276100e-02
  1000022 -1    0    0    0    0 +0.0000000000e+00 +0.0000000000e+00 +4.4721471353e+01 1.0000100000e+04 1.0000000000e+04 0.0000e+00 -1.0000e+00
  1000022 -1    0    0    0    0 -0.0000000000e+00 -0.0000000000e+00 -4.4721471353e+01 1.0000100000e+04 1.0000000000e+04 0.0000e+00 -1.0000e+00
      -24  1    1    2    0    0 +4.1860010611e+03 -7.8131780074e+03 +2.4766140610e+03 9.2037136709e+03 7.9829010000e+01 0.0000e+00 1.0000e+00
       24  1    1    2    0    0 -3.2720447456e+03 +6.9600792937e+03 -3.6083303512e+03 8.4956107012e+03 7.9829010000e+01 0.0000e+00 1.0000e+00
       22  1    1    2    0    0 -3.1957243317e+02 +3.3004138800e+02 -3.7879726312e+02 5.9543364398e+02 0.0000000000e+00 0.0000e+00 1.0000e+00
       22  1    1    2    0    0 -5.9438388229e+02 +5.2305732570e+02 +1.5105135534e+03 1.7054419839e+03 0.0000000000e+00 0.0000e+00 1.0000e+00
</event>
<event>
 6      1 +1.4834189e-01 1.00146800e+04 7.81653100e-03 6.93784000e-02
  1000022 -1    0    0    0    0 +0.0000000000e+00 +0.0000000000e+00 +4.4721471353e+01 1.0000100000e+04 1.0000000000e+04 0.0000e+00 -1.0000e+00
  1000022 -1    0    0    0    0 -0.0000000000e+00 -0.0000000000e+00 -4.4721471353e+01 1.0000100000e+04 1.0000000000e+04 0.0000e+00 -1.0000e+00
      -24  1    1    2    0    0 +3.6801712630e+03 -4.7918466681e+02 +2.8767730003e+03 4.6963255888e+03 7.9829010000e+01 0.0000e+00 1.0000e+00
       24  1    1    2    0    0 -7.3229716049e+03 +2.7504125705e+02 -5.1453127858e+03 8.9544501313e+03 7.9829010000e+01 0.0000e+00 1.0000e+00
       22  1    1    2    0    0 +4.4923415223e+03 +1.0709431474e+02 +2.8447003097e+03 5.3183570205e+03 0.0000000000e+00 0.0000e+00 1.0000e+00
       22  1    1    2    0    0 -8.4954118038e+02 +9.7049095014e+01 -5.7616052414e+02 1.0310672595e+03 0.0000000000e+00 0.0000e+00 1.0000e+00
</event>
<event>
 6      1 +1.4834189e-01 1.00014300e+04 7.81653100e-03 6.93863900e-02
  1000022 -1    0    0    0    0 +0.0000000000e+00 +0.0000000000e+00 +4.4721471353e+01 1.0000100000e+04 1.0000000000e+04 0.0000e+00 -1.0000e+00
  1000022 -1    0    0    0    0 -0.0000000000e+00 -0.0000000000e+00 -4.4721471353e+01 1.0000100000e+04 1.0000000000e+04 0.0000e+00 -1.0000e+00
      -24  1    1    2    0    0 -7.4168393723e+03 +4.3331846775e+03 +5.0472158287e+03 9.9632703475e+03 7.9829010000e+01 0.0000e+00 -1.0000e+00
       24  1    1    2    0    0 +4.3718888859e+03 -2.5704124643e+03 -3.1048144067e+03 5.9469889724e+03 7.9829010000e+01 0.0000e+00 -1.0000e+00
       22  1    1    2    0    0 -2.7605386170e+01 +1.4564854390e+01 +1.6919489912e+01 3.5502978296e+01 0.0000000000e+00 0.0000e+00 1.0000e+00
       22  1    1    2    0    0 +3.0725558725e+03 -1.7773370677e+03 -1.9593209119e+03 4.0544377018e+03 0.0000000000e+00 0.0000e+00 -1.0000e+00
</event>
<event>
 6      1 +1.4834189e-01 1.00001700e+04 7.81653100e-03 6.93871500e-02
  1000022 -1    0    0    0    0 +0.0000000000e+00 +0.0000000000e+00 +4.4721471353e+01 1.0000100000e+04 1.0000000000e+04 0.0000e+00 1.0000e+00
  1000022 -1    0    0    0    0 -0.0000000000e+00 -0.0000000000e+00 -4.4721471353e+01 1.0000100000e+04 1.0000000000e+04 0.0000e+00 1.0000e+00
      -24  1    1    2    0    0 +5.7478888308e+03 -3.9093920316e+03 -7.1353042704e+03 9.9619532106e+03 7.9829010000e+01 0.0000e+00 -1.0000e+00
       24  1    1    2    0    0 -5.2186934912e+03 +3.5410534152e+03 +6.4698614986e+03 9.0354469467e+03 7.9829010000e+01 0.0000e+00 -1.0000e+00
       22  1    1    2    0    0 +1.8431457258e+01 -1.5261933249e+01 -2.9803236945e+01 3.8221435812e+01 0.0000000000e+00 0.0000e+00 -1.0000e+00
       22  1    1    2    0    0 -5.4762679685e+02 +3.8360054965e+02 +6.9524600880e+02 9.6457840691e+02 0.0000000000e+00 0.0000e+00 -1.0000e+00
</event>
<event>
 6      1 +1.4834189e-01 1.02613500e+04 7.81653100e-03 6.92318300e-02
  1000022 -1    0    0    0    0 +0.0000000000e+00 +0.0000000000e+00 +4.4721471353e+01 1.0000100000e+04 1.0000000000e+04 0.0000e+00 1.0000e+00
  1000022 -1    0    0    0    0 -0.0000000000e+00 -0.0000000000e+00 -4.4721471353e+01 1.0000100000e+04 1.0000000000e+04 0.0000e+00 1.0000e+00
      -24  1    1    2    0    0 +2.8484727799e+02 -9.7203856170e+03 +5.2138947239e+02 9.7388528158e+03 7.9829010000e+01 0.0000e+00 1.0000e+00
       24  1    1    2    0    0 -1.2434301882e+03 +1.5010759625e+03 +9.2577328728e+01 1.9530209703e+03 7.9829010000e+01 0.0000e+00 1.0000e+00
       22  1    1    2    0    0 +9.8046871937e+02 +8.1926629379e+03 -6.1091924326e+02 8.2737094006e+03 0.0000000000e+00 0.0000e+00 1.0000e+00
       22  1    1    2    0    0 -2.1885809192e+01 +2.6646716587e+01 -3.0475578557e+00 3.4616813223e+01 0.0000000000e+00 0.0000e+00 -1.0000e+00
</event>
<event>
 6      1 +1.4834189e-01 1.02156400e+04 7.81653100e-03 6.92586700e-02
  1000022 -1    0    0    0    0 +0.0000000000e+00 +0.0000000000e+00 +4.4721471353e+01 1.0000100000e+04 1.0000000000e+04 0.0000e+00 -1.0000e+00
  1000022 -1    0    0    0    0 -0.0000000000e+00 -0.0000000000e+00 -4.4721471353e+01 1.0000100000e+04 1.0000000000e+04 0.0000e+00 -1.0000e+00
      -24  1    1    2    0    0 +4.9208538088e+03 +4.9618838029e+01 -7.8406436505e+03 9.2573932487e+03 7.9829010000e+01 0.0000e+00 -1.0000e+00
       24  1    1    2    0    0 -5.8011900022e+03 -1.8908670309e+02 +7.7545616017e+03 9.6865451802e+03 7.9829010000e+01 0.0000e+00 -1.0000e+00
       22  1    1    2    0    0 +9.4698920438e+02 +1.4575289727e+02 +1.4498652856e+01 9.5824979583e+02 0.0000000000e+00 0.0000e+00 1.0000e+00
       22  1    1    2    0    0 -6.6653011007e+01 -6.2850322004e+00 +7.1583395916e+01 9.8011775195e+01 0.0000000000e+00 0.0000e+00 -1.0000e+00
</event>
<event>
 6      1 +1.4834189e-01 1.00175500e+04 7.81653100e-03 6.93766700e-02
  1000022 -1    0    0    0    0 +0.0000000000e+00 +0.0000000000e+00 +4.4721471353e+01 1.0000100000e+04 1.0000000000e+04 0.0000e+00 -1.0000e+00
  1000022 -1    0    0    0    0 -0.0000000000e+00 -0.0000000000e+00 -4.4721471353e+01 1.0000100000e+04 1.0000000000e+04 0.0000e+00 -1.0000e+00
      -24  1    1    2    0    0 -9.7492202485e+03 -2.1950752520e+02 +3.3437437110e+02 9.7577486081e+03 7.9829010000e+01 0.0000e+00 1.0000e+00
       24  1    1    2    0    0 +9.3485834569e+03 +3.7903706472e+02 -4.4504470454e+02 9.3671830989e+03 7.9829010000e+01 0.0000e+00 1.0000e+00
       22  1    1    2    0    0 -2.2425937495e+02 -6.2995715772e+00 +1.5806915373e+01 2.2490400270e+02 0.0000000000e+00 0.0000e+00 1.0000e+00
       22  1    1    2    0    0 +6.2489616656e+02 -1.5322996794e+02 +9.4863418071e+01 6.5036429034e+02 0.0000000000e+00 0.0000e+00 -1.0000e+00
</event>
<event>
 6      1 +1.4834189e-01 1.00214900e+04 7.81653100e-03 6.93743000e-02
  1000022 -1    0    0    0    0 +0.0000000000e+00 +0.0000000000e+00 +4.4721471353e+01 1.0000100000e+04 1.0000000000e+04 0.0000e+00 1.0000e+00
  1000022 -1    0    0    0    0 -0.0000000000e+00 -0.0000000000e+00 -4.4721471353e+01 1.0000100000e+04 1.0000000000e+04 0.0000e+00 1.0000e+00
      -24  1    1    2    0    0 +6.3148423639e+03 -7.0412925740e+03 +2.8131252169e+03 9.8679826383e+03 7.9829010000e+01 0.0000e+00 -1.0000e+00
       24  1    1    2    0    0 -2.7309431706e+03 +2.8947793605e+03 -1.2749150096e+03 4.1796625581e+03 7.9829010000e+01 0.0000e+00 -1.0000e+00
       22  1    1    2    0    0 -3.7364134861e+03 +4.1622936438e+03 -1.5308508233e+03 5.7990497808e+03 0.0000000000e+00 0.0000e+00 -1.0000e+00
       22  1    1    2    0    0 +1.5251429284e+02 -1.5780430253e+01 -7.3593839270e+00 1.5350502282e+02 0.0000000000e+00 0.0000e+00 1.0000e+00
</event>
<event>
 6      1 +1.4834189e-01 1.00760000e+04 7.81653100e-03 6.93415700e-02
  1000022 -1    0    0    0    0 +0.0000000000e+00 +0.0000000000e+00 +4.4721471353e+01 1.0000100000e+04 1.0000000000e+04 0.0000e+00 -1.0000e+00
  1000022 -1    0    0    0    0 -0.0000000000e+00 -0.0000000000e+00 -4.4721471353e+01 1.0000100000e+04 1.0000000000e+04 0.0000e+00 -1.0000e+00
      -24  1    1    2    0    0 +7.1086115559e+03 +5.1997569800e+03 +2.8439205403e+03 9.2554895934e+03 7.9829010000e+01 0.0000e+00 1.0000e+00
       24  1    1    2    0    0 -2.0223170422e+02 -2.4064324297e+02 -6.7688333466e+01 3.3130229988e+02 7.9829010000e+01 0.0000e+00 0.0000e+00
       22  1    1    2    0    0 -7.3770419915e+03 -5.5851291472e+03 -2.5316445837e+03 9.5928953102e+03 0.0000000000e+00 0.0000e+00 1.0000e+00
       22  1    1    2    0    0 +4.7066213981e+02 +6.2601541025e+02 -2.4458762321e+02 8.2051279646e+02 0.0000000000e+00 0.0000e+00 -1.0000e+00
</event>
<event>
 6      1 +1.4834189e-01 1.00865200e+04 7.81653100e-03 6.93352800e-02
  1000022 -1    0    0    0    0 +0.0000000000e+00 +0.0000000000e+00 +4.4721471353e+01 1.0000100000e+04 1.0000000000e+04 0.0000e+00 -1.0000e+00
  1000022 -1    0    0    0    0 -0.0000000000e+00 -0.0000000000e+00 -4.4721471353e+01 1.0000100000e+04 1.0000000000e+04 0.0000e+00 -1.0000e+00
      -24  1    1    2    0    0 -2.3316741031e+03 -9.4317161340e+02 -5.6182935066e+02 2.5784300854e+03 7.9829010000e+01 0.0000e+00 -1.0000e+00
       24  1    1    2    0    0 +2.7843700254e+02 +2.9149085596e+02 +1.4794356452e+02 4.3675399553e+02 7.9829010000e+01 0.0000e+00 -1.0000e+00
       22  1    1    2    0    0 -5.3427460910e+03 -2.0436227404e+03 -4.8631329361e+03 7.5080884153e+03 0.0000000000e+00 0.0000e+00 1.0000e+00
       22  1    1    2    0    0 +7.3959831916e+03 +2.6953034978e+03 +5.2770187223e+03 9.4769275037e+03 0.0000000000e+00 0.0000e+00 1.0000e+00
</event>
<event>
 6      1 +1.4834189e-01 8.89592400e+03 7.81653100e-03 7.01010500e-02
  1000022 -1    0    0    0    0 +0.0000000000e+00 +0.0000000000e+00 +4.4721471353e+01 1.0000100000e+04 1.0000000000e+04 0.0000e+00 1.0000e+00
  1000022 -1    0    0    0    0 -0.0000000000e+00 -0.0000000000e+00 -4.4721471353e+01 1.0000100000e+04 1.0000000000e+04 0.0000e+00 1.0000e+00
      -24  1    1    2    0    0 +1.1550038593e+03 -1.4563954944e+03 +9.5945925998e+02 2.0933362113e+03 7.9829010000e+01 0.0000e+00 1.0000e+00
       24  1    1    2    0    0 -7.3698522064e+03 +3.0106318444e+03 +3.2735792410e+03 8.6082123211e+03 7.9829010000e+01 0.0000e+00 1.0000e+00
       22  1    1    2    0    0 +6.9661089926e+03 -1.8422966425e+03 -4.4453534234e+03 8.4665163128e+03 0.0000000000e+00 0.0000e+00 1.0000e+00
       22  1    1    2    0    0 -7.5126064548e+02 +2.8806029258e+02 +2.1231492248e+02 8.3213515483e+02 0.0000000000e+00 0.0000e+00 1.0000e+00
</event>
<event>
 6      1 +1.4834189e-01 1.00003000e+04 7.81653100e-03 6.93870700e-02
  1000022 -1    0    0    0    0 +0.0000000000e+00 +0.0000000000e+00 +4.4721471353e+01 1.0000100000e+04 1.0000000000e+04 0.0000e+00 -1.0000e+00
  1000022 -1    0    0    0    0 -0.0000000000e+00 -0.0000000000e+00 -4.4721471353e+01 1.0000100000e+04 1.0000000000e+04 0.0000e+00 -1.0000e+00
      -24  1    1    2    0    0 -3.9720597972e+03 +7.6304636442e+03 -4.8571344009e+03 9.8792389240e+03 7.9829010000e+01 0.0000e+00 1.0000e+00
       24  1    1    2    0    0 +3.3505862219e+03 -6.3399772625e+03 +4.0203505081e+03 8.2213946869e+03 7.9829010000e+01 0.0000e+00 1.0000e+00
       22  1    1    2    0    0 +6.7457869673e+02 -1.3763012017e+03 +9.0291722368e+02 1.7789100395e+03 0.0000000000e+00 0.0000e+00 1.0000e+00
       22  1    1    2    0    0 -5.3105121436e+01 +8.5814819940e+01 -6.6133330901e+01 1.2065634961e+02 0.0000000000e+00 0.0000e+00 -1.0000e+00
</event>
<event>
 6      1 +1.4834189e-01 1.00042200e+04 7.81653100e-03 6.93847000e-02
  1000022 -1    0    0    0    0 +0.0000000000e+00 +0.0000000000e+00 +4.4721471353e+01 1.0000100000e+04 1.0000000000e+04 0.0000e+00 1.0000e+00
  1000022 -1    0    0    0    0 -0.0000000000e+00 -0.0000000000e+00 -4.4721471353e+01 1.0000100000e+04 1.0000000000e+04 0.0000e+00 1.0000e+00
      -24  1    1    2    0    0 -6.8854195292e+03 -3.0870037920e+03 -6.3274375523e+03 9.8479151679e+03 7.9829010000e+01 0.0000e+00 1.0000e+00
       24  1    1    2    0    0 +6.9670073902e+03 +3.1344212307e+03 +6.4458805078e+03 9.9959760213e+03 7.9829010000e+01 0.0000e+00 1.0000e+00
       22  1    1    2    0    0 -1.7555389123e+01 -1.6478577737e+01 -5.8640104044e+01 6.3390827520e+01 0.0000000000e+00 0.0000e+00 1.0000e+00
       22  1    1    2    0    0 -6.4032471817e+01 -3.0938860982e+01 -5.9802851547e+01 9.2917983292e+01 0.0000000000e+00 0.0000e+00 1.0000e+00
</event>
<event>
 6      1 +1.4834189e-01 1.00702600e+04 7.81653100e-03 6.93450000e-02
  1000022 -1    0    0    0    0 +0.0000000000e+00 +0.0000000000e+00 +4.4721471353e+01 1.0000100000e+04 1.0000000000e+04 0.0000e+00 1.0000e+00
  1000022 -1    0    0    0    0 -0.0000000000e+00 -0.0000000000e+00 -4.4721471353e+01 1.0000100000e+04 1.0000000000e+04 0.0000e+00 1.0000e+00
      -24  1    1    2    0    0 -9.8270739230e+03 -1.1753467068e+03 +8.0279876543e+02 9.9299385848e+03 7.9829010000e+01 0.0000e+00 -1.0000e+00
       24  1    1    2    0    0 +9.3363155003e+03 +8.0656529960e+02 -5.6567342391e+02 9.3884873007e+03 7.9829010000e+01 0.0000e+00 -1.0000e+00
       22  1    1    2    0    0 +1.0114102802e+02 +5.7091076312e+00 -6.7732262408e+00 1.0152821309e+02 0.0000000000e+00 0.0000e+00 -1.0000e+00
       22  1    1    2    0    0 +3.8961739475e+02 +3.6307229957e+02 -2.3035211528e+02 5.8024590134e+02 0.0000000000e+00 0.0000e+00 -1.0000e+00
</event>
<event>
 6      1 +1.4834189e-01 1.01048000e+04 7.81653100e-03 6.93243600e-02
  1000022 -1    0    0    0    0 +0.0000000000e+00 +0.0000000000e+00 +4.4721471353e+01 1.0000100000e+04 1.0000000000e+04 0.0000e+00 -1.0000e+00
  1000022 -1    0    0    0    0 -0.0000000000e+00 -0.0000000000e+00 -4.4721471353e+01 1.0000100000e+04 1.0000000000e+04 0.0000e+00 -1.0000e+00
      -24  1    1    2    0    0 +2.3614383481e+03 -4.8162133760e+03 -8.2639708043e+03 9.8525067105e+03 7.9829010000e+01 0.0000e+00 1.0000e+00
       24  1    1    2    0    0 -2.2376907821e+03 +3.7688447360e+03 +7.7609062276e+03 8.9134442739e+03 7.9829010000e+01 0.0000e+00 1.0000e+00
       22  1    1    2    0    0 -8.4277354260e+00 -5.8804978691e+00 -4.1640693766e+01 4.2890026311e+01 0.0000000000e+00 0.0000e+00 1.0000e+00
       22  1    1    2    0    0 -1.1531983056e+02 +1.0532491379e+03 +5.4470527044e+02 1.1913589893e+03 0.0000000000e+00 0.0000e+00 1.0000e+00
</event>
<event>
 6      1 +1.4834189e-01 1.00073100e+04 7.81653100e-03 6.93828400e-02
  1000022 -1    0    0    0    0 +0.0000000000e+00 +0.0000000000e+00 +4.4721471353e+01 1.0000100000e+04 1.0000000000e+04 0.0000e+00 1.0000e+00
  1000022 -1    0    0    0    0 -0.0000000000e+00 -0.0000000000e+00 -4.4721471353e+01 1.0000100000e+04 1.0000000000e+04 0.0000e+00 1.0000e+00
      -24  1    1    2    0    0 +1.2235254675e+03 +6.5555323915e+03 -3.5859744866e+03 7.5721598765e+03 7.9829010000e+01 0.0000e+00 -1.0000e+00
       24  1    1    2    0    0 -1.5577825824e+03 -8.5690419266e+03 +4.6085949108e+03 9.8539680249e+03 7.9829010000e+01 0.0000e+00 -1.0000e+00
       22  1    1    2    0    0 -2.0452674450e+01 -1.5196808801e+02 -4.4776562169e-01 1.5333888013e+02 0.0000000000e+00 0.0000e+00 1.0000e+00
       22  1    1    2    0    0 +3.5470978938e+02 +2.1654776232e+03 -1.0221726585e+03 2.4207332184e+03 0.0000000000e+00 0.0000e+00 -1.0000e+00
</event>
<event>
 6      1 +1.4834189e-01 1.00699600e+04 7.81653100e-03 6.93451900e-02
  1000022 -1    0    0    0    0 +0.0000000000e+00 +0.0000000000e+00 +4.4721471353e+01 1.0000100000e+04 1.0000000000e+04 0.0000e+00 -1.0000e+00
  1000022 -1    0    0    0    0 -0.0000000000e+00 -0.0000000000e+00 -4.4721471353e+01 1.0000100000e+04 1.0000000000e+04 0.0000e+00 -1.0000e+00
      -24  1    1    2    0    0 +5.0262214240e+01 +1.1160470483e+03 -3.1867795099e+02 1.1644808334e+03 7.9829010000e+01 0.0000e+00 -1.0000e+00
       24  1    1    2    0    0 +1.6094338008e+03 -8.4490851540e+03 +4.7800909334e+03 9.8403739310e+03 7.9829010000e+01 0.0000e+00 1.0000e+00
       22  1    1    2    0    0 -1.4611497194e+03 +7.3319600485e+03 -4.5766796632e+03 8.7657625677e+03 0.0000000000e+00 0.0000e+00 1.0000e+00
       22  1    1    2    0    0 -1.9854629557e+02 +1.0780573241e+00 +1.1526668079e+02 2.2958266788e+02 0.0000000000e+00 0.0000e+00 1.0000e+00
</event>
<event>
 6      1 +1.4834189e-01 1.00175200e+04 7.81653100e-03 6.93766900e-02
  1000022 -1    0    0    0    0 +0.0000000000e+00 +0.0000000000e+00 +4.4721471353e+01 1.0000100000e+04 1.0000000000e+04 0.0000e+00 1.0000e+00
  1000022 -1    0    0    0    0 -0.0000000000e+00 -0.0000000000e+00 -4.4721471353e+01 1.0000100000e+04 1.0000000000e+04 0.0000e+00 1.0000e+00
      -24  1    1    2    0    0 -6.8252082396e+03 +5.4135178086e+03 +1.9108872288e+03 8.9189408143e+03 7.9829010000e+01 0.0000e+00 1.0000e+00
       24  1    1    2    0    0 +7.6207342842e+03 -6.0755408432e+03 -2.0826701705e+03 9.9665277443e+03 7.9829010000e+01 0.0000e+00 1.0000e+00
       22  1    1    2    0    0 +3.2124517297e+01 +7.1198356035e+00 +3.8951326097e+01 5.0989042698e+01 0.0000000000e+00 0.0000e+00 -1.0000e+00
       22  1    1    2    0    0 -8.2765056187e+02 +6.5490319900e+02 +1.3283161565e+02 1.0637423987e+03 0.0000000000e+00 0.0000e+00 1.0000e+00
</event>
<event>
 6      1 +1.4834189e-01 1.00101700e+04 7.81653100e-03 6.93811200e-02
  1000022 -1    0    0    0    0 +0.0000000000e+00 +0.0000000000e+00 +4.4721471353e+01 1.0000100000e+04 1.0000000000e+04 0.0000e+00 -1.0000e+00
  1000022 -1    0    0    0    0 -0.0000000000e+00 -0.0000000000e+00 -4.4721471353e+01 1.0000100000e+04 1.0000000000e+04 0.0000e+00 -1.0000e+00
      -24  1    1    2    0    0 -2.4225677168e+03 +5.8409151919e+03 +7.7055781159e+03 9.9683213929e+03 7.9829010000e+01 0.0000e+00 1.0000e+00
       24  1    1    2    0    0 +2.3020628633e+03 -5.7221901128e+03 -7.6249458181e+03 9.8076054424e+03 7.9829010000e+01 0.0000e+00 1.0000e+00
       22  1    1    2    0    0 -1.9013287905e+00 +2.1604365068e+01 -8.9737895385e-01 2.1706426011e+01 0.0000000000e+00 0.0000e+00 1.0000e+00
       22  1    1    2    0    0 +1.2240618224e+02 -1.4032944417e+02 -7.9734918815e+01 2.0256673871e+02 0.0000000000e+00 0.0000e+00 1.0000e+00
</event>
<event>
 6      1 +1.4834189e-01 1.01129100e+04 7.81653100e-03 6.93195200e-02
  1000022 -1    0    0    0    0 +0.0000000000e+00 +0.0000000000e+00 +4.4721471353e+01 1.0000100000e+04 1.0000000000e+04 0.0000e+00 1.0000e+00
  1000022 -1    0    0    0    0 -0.0000000000e+00 -0.0000000000e+00 -4.4721471353e+01 1.0000100000e+04 1.0000000000e+04 0.0000e+00 1.0000e+00
      -24  1    1    2    0    0 +1.6255789746e+03 +1.9606317514e+03 +3.5709965951e+03 4.3869093016e+03 7.9829010000e+01 0.0000e+00 -1.0000e+00
       24  1    1    2    0    0 -4.5195453753e+03 -4.7207561052e+03 -7.4189102060e+03 9.8872862768e+03 7.9829010000e+01 0.0000e+00 -1.0000e+00
       22  1    1    2    0    0 +1.2162975592e+03 +1.0732272413e+03 +6.6718318803e+02 1.7539469405e+03 0.0000000000e+00 0.0000e+00 1.0000e+00
       22  1    1    2    0    0 +1.6776688415e+03 +1.6868971125e+03 +3.1807304229e+03 3.9720574811e+03 0.0000000000e+00 0.0000e+00 -1.0000e+00
</event>
<event>
 6      1 +1.4834189e-01 1.00276000e+04 7.81653100e-03 6.93706100e-02
  1000022 -1    0    0    0    0 +0.0000000000e+00 +0.0000000000e+00 +4.4721471353e+01 1.0000100000e+04 1.0000000000e+04 0.0000e+00 1.0000e+00
  1000022 -1    0    0    0    0 -0.0000000000e+00 -0.0000000000e+00 -4.4721471353e+01 1.0000100000e+04 1.0000000000e+04 0.0000e+00 1.0000e+00
      -24  1    1    2    0    0 -8.8276843493e+01 -4.1559486832e+03 +8.8477839043e+03 9.7759580066e+03 7.9829010000e+01 0.0000e+00 1.0000e+00
       24  1    1    2    0    0 +1.3854176301e+02 +4.2615904380e+03 -9.0117597034e+03 9.9698812683e+03 7.9829010000e+01 0.0000e+00 1.0000e+00
       22  1    1    2    0    0 -4.9913743123e+01 -2.4672948713e+01 -1.5219427119e+01 5.7721461456e+01 0.0000000000e+00 0.0000e+00 -1.0000e+00
       22  1    1    2    0    0 -3.5117639443e-01 -8.0968806065e+01 +1.7919522630e+02 1.9663926365e+02 0.0000000000e+00 0.0000e+00 1.0000e+00
</event>
<event>
 6      1 +1.4834189e-01 1.00643000e+04 7.81653100e-03 6.93485800e-02
  1000022 -1    0    0    0    0 +0.0000000000e+00 +0.0000000000e+00 +4.4721471353e+01 1.0000100000e+04 1.0000000000e+04 0.0000e+00 1.0000e+00
  1000022 -1    0    0    0    0 -0.0000000000e+00 -0.0000000000e+00 -4.4721471353e+01 1.0000100000e+04 1.0000000000e+04 0.0000e+00 1.0000e+00
      -24  1    1    2    0    0 +1.8102789991e+02 -6.3268270982e+03 -7.5667496715e+03 9.8652716888e+03 7.9829010000e+01 0.0000e+00 1.0000e+00
       24  1    1    2    0    0 -2.8263659586e+02 +2.9947184246e+03 +2.4137162438e+03 3.8575407534e+03 7.9829010000e+01 0.0000e+00 1.0000e+00
       22  1    1    2    0    0 +1.1604140120e+01 -4.0535809092e+01 -5.6666881440e+01 7.0632452448e+01 0.0000000000e+00 0.0000e+00 -1.0000e+00
       22  1    1    2    0    0 +9.0004555823e+01 +3.3726444827e+03 +5.2097003091e+03 6.2067551053e+03 0.0000000000e+00 0.0000e+00 1.0000e+00
</event>
<event>
 6      1 +1.4834189e-01 1.00017200e+04 7.81653100e-03 6.93862200e-02
  1000022 -1    0    0    0    0 +0.0000000000e+00 +0.0000000000e+00 +4.4721471353e+01 1.0000100000e+04 1.0000000000e+04 0.0000e+00 1.0000e+00
  1000022 -1    0    0    0    0 -0.0000000000e+00 -0.0000000000e+00 -4.4721471353e+01 1.0000100000e+04 1.0000000000e+04 0.0000e+00 1.0000e+00
      -24  1    1    2    0    0 -5.9333980958e+03 -4.0198948626e+03 +2.3861191531e+03 7.5541184101e+03 7.9829010000e+01 0.0000e+00 -1.0000e+00
       24  1    1    2    0    0 +7.6389360300e+03 +5.1638004939e+03 -2.9854447581e+03 9.6921324943e+03 7.9829010000e+01 0.0000e+00 -1.0000e+00
       22  1    1    2    0    0 +2.4522438493e+02 +1.3374756792e+02 -1.3349695654e+02 3.0958819146e+02 0.0000000000e+00 0.0000e+00 -1.0000e+00
       22  1    1    2    0    0 -1.9507623191e+03 -1.2776531992e+03 +7.3282256155e+02 2.4443609042e+03 0.0000000000e+00 0.0000e+00 -1.0000e+00
</event>
<event>
 6      1 +1.4834189e-01 1.00369900e+04 7.81653100e-03 6.93649700e-02
  1000022 -1    0    0    0    0 +0.0000000000e+00 +0.0000000000e+00 +4.4721471353e+01 1.0000100000e+04 1.0000000000e+04 0.0000e+00 1.0000e+00
  1000022 -1    0    0    0    0 -0.0000000000e+00 -0.0000000000e+00 -4.4721471353e+01 1.0000100000e+04 1.0000000000e+04 0.0000e+00 1.0000e+00
      -24  1    1    2    0    0 +4.4576011745e+03 +6.9529620175e+03 -5.2983739198e+03 9.8129010956e+03 7.9829010000e+01 0.0000e+00 1.0000e+00
       24  1    1    2    0    0 -4.6542639016e+03 -6.9999523037e+03 +5.3476778846e+03 9.9632091290e+03 7.9829010000e+01 0.0000e+00 1.0000e+00
       22  1    1    2    0    0 +2.2977293196e+01 +3.4261013932e+01 -2.5037215977e+01 4.8255934994e+01 0.0000000000e+00 0.0000e+00 -1.0000e+00
       22  1    1    2    0    0 +1.7368543392e+02 +1.2729272269e+01 -2.4266748795e+01 1.7583384039e+02 0.0000000000e+00 0.0000e+00 -1.0000e+00
</event>
<event>
 6      1 +1.4834189e-01 1.02916800e+04 7.81653100e-03 6.92140900e-02
  1000022 -1    0    0    0    0 +0.0000000000e+00 +0.0000000000e+00 +4.4721471353e+01 1.0000100000e+04 1.0000000000e+04 0.0000e+00 1.0000e+00
  1000022 -1    0    0    0    0 -0.0000000000e+00 -0.0000000000e+00 -4.4721471353e+01 1.0000100000e+04 1.0000000000e+04 0.0000e+00 1.0000e+00
      -24  1    1    2    0    0 -6.7284979991e+03 +2.9799541393e+03 -3.6992509475e+03 8.2367252133e+03 7.9829010000e+01 0.0000e+00 1.0000e+00
       24  1    1    2    0    0 +8.2420084750e+03 -2.0179030726e+03 +4.6717098384e+03 9.6867890448e+03 7.9829010000e+01 0.0000e+00 1.0000e+00
       22  1    1    2    0    0 -1.5334095725e+03 -9.5590521087e+02 -9.7864958430e+02 2.0549585636e+03 0.0000000000e+00 0.0000e+00 -1.0000e+00
       22  1    1    2    0    0 +1.9899096628e+01 -6.1458557492e+00 +6.1906934406e+00 2.1727178251e+01 0.0000000000e+00 0.0000e+00 1.0000e+00
</event>
<event>
 6      1 +1.4834189e-01 1.00061500e+04 7.81653100e-03 6.93835400e-02
  1000022 -1    0    0    0    0 +0.0000000000e+00 +0.0000000000e+00 +4.4721471353e+01 1.0000100000e+04 1.0000000000e+04 0.0000e+00 -1.0000e+00
  1000022 -1    0    0    0    0 -0.0000000000e+00 -0.0000000000e+00 -4.4721471353e+01 1.0000100000e+04 1.0000000000e+04 0.0000e+00 -1.0000e+00
      -24  1    1    2    0    0 -3.3045539498e+03 -2.7259710017e+03 -8.9487218919e+03 9.9215417591e+03 7.9829010000e+01 0.0000e+00 -1.0000e+00
       24  1    1    2    0    0 +3.3420833663e+03 +2.7622878952e+03 +9.0041575242e+03 9.9940472800e+03 7.9829010000e+01 0.0000e+00 -1.0000e+00
       22  1    1    2    0    0 +2.3225132770e+00 -1.2558179082e+01 -6.0644199236e-01 1.2785527039e+01 0.0000000000e+00 0.0000e+00 -1.0000e+00
       22  1    1    2    0    0 -3.9851929786e+01 -2.3758714447e+01 -5.4829190390e+01 7.1825433787e+01 0.0000000000e+00 0.0000e+00 -1.0000e+00
</event>
<event>
 6      1 +1.4834189e-01 1.00281400e+04 7.81653100e-03 6.93702900e-02
  1000022 -1    0    0    0    0 +0.0000000000e+00 +0.0000000000e+00 +4.4721471353e+01 1.0000100000e+04 1.0000000000e+04 0.0000e+00 -1.0000e+00
  1000022 -1    0    0    0    0 -0.0000000000e+00 -0.0000000000e+00 -4.4721471353e+01 1.0000100000e+04 1.0000000000e+04 0.0000e+00 -1.0000e+00
      -24  1    1    2    0    0 +7.9270880927e+03 -1.5410170511e+03 -4.3841729308e+03 9.1891677610e+03 7.9829010000e+01 0.0000e+00 -1.0000e+00
       24  1    1    2    0    0 -8.5202153009e+03 +1.6011366874e+03 +4.9272657048e+03 9.9720623475e+03 7.9829010000e+01 0.0000e+00 -1.0000e+00
       22  1    1    2    0    0 +4.0856981254e+02 -8.0517939139e+01 -2.3204398447e+02 4.7671463264e+02 0.0000000000e+00 0.0000e+00 -1.0000e+00
       22  1    1    2    0    0 +1.8455739569e+02 +2.0398302886e+01 -3.1104878962e+02 3.6225525888e+02 0.0000000000e+00 0.0000e+00 -1.0000e+00
</event>
<event>
 6      1 +1.4834189e-01 1.00158400e+04 7.81653100e-03 6.93777000e-02
  1000022 -1    0    0    0    0 +0.0000000000e+00 +0.0000000000e+00 +4.4721471353e+01 1.0000100000e+04 1.0000000000e+04 0.0000e+00 -1.0000e+00
  1000022 -1    0    0    0    0 -0.0000000000e+00 -0.0000000000e+00 -4.4721471353e+01 1.0000100000e+04 1.0000000000e+04 0.0000e+00 -1.0000e+00
      -24  1    1    2    0    0 -4.9766092137e+03 +1.3149111791e+03 +8.2936012379e+03 9.7614458375e+03 7.9829010000e+01 0.0000e+00 -1.0000e+00
       24  1    1    2    0    0 +2.9358897403e+02 -6.5966836303e+01 -2.3845578153e+02 3.9214785444e+02 7.9829010000e+01 0.0000e+00 0.0000e+00
       22  1    1    2    0    0 +4.7900434597e+03 -1.2820738738e+03 -8.2478611716e+03 9.6236917900e+03 0.0000000000e+00 0.0000e+00 -1.0000e+00
       22  1    1    2    0    0 -1.0702322003e+02 +3.3129531062e+01 +1.9271571521e+02 2.2291451802e+02 0.0000000000e+00 0.0000e+00 -1.0000e+00
</event>
<event>
 6      1 +1.4834189e-01 1.00002900e+04 7.81653100e-03 6.93870800e-02
  1000022 -1    0    0    0    0 +0.0000000000e+00 +0.0000000000e+00 +4.4721471353e+01 1.0000100000e+04 1.0000000000e+04 0.0000e+00 1.0000e+00
  1000022 -1    0    0    0    0 -0.0000000000e+00 -0.0000000000e+00 -4.4721471353e+01 1.0000100000e+04 1.0000000000e+04 0.0000e+00 1.0000e+00
      -24  1    1    2    0    0 +3.9261010591e+03 -7.2096024432e+03 +3.7130547375e+03 9.0103154812e+03 7.9829010000e+01 0.0000e+00 1.0000e+00
       24  1    1    2    0    0 -2.5932782521e+03 +4.8091408828e+03 -2.4473932331e+03 5.9874063192e+03 7.9829010000e+01 0.0000e+00 1.0000e+00
       22  1    1    2    0    0 +4.0326567389e+02 -8.1236831971e+02 +3.9684059323e+02 9.8997371027e+02 0.0000000000e+00 0.0000e+00 1.0000e+00
       22  1    1    2    0    0 -1.7360884809e+03 +3.2128298801e+03 -1.6625020977e+03 4.0125044893e+03 0.0000000000e+00 0.0000e+00 1.0000e+00
</event>
<event>
 6      1 +1.4834189e-01 1.00747000e+04 7.81653100e-03 6.93423500e-02
  1000022 -1    0    0    0    0 +0.0000000000e+00 +0.0000000000e+00 +4.4721471353e+01 1.0000100000e+04 1.0000000000e+04 0.0000e+00 1.0000e+00
  1000022 -1    0    0    0    0 -0.0000000000e+00 -0.0000000000e+00 -4.4721471353e+01 1.0000100000e+04 1.0000000000e+04 0.0000e+00 1.0000e+00
      -24  1    1    2    0    0 +7.4385947340e+03 -4.1793597821e+03 +4.1311474706e+03 9.4801103316e+03 7.9829010000e+01 0.0000e+00 1.0000e+00
       24  1    1    2    0    0 -3.8251411240e+03 +1.0039909668e+03 -1.4634588249e+03 4.2175569804e+03 7.9829010000e+01 0.0000e+00 -1.0000e+00
       22  1    1    2    0    0 +3.5149129133e+02 +2.2604208252e+01 +2.7261290815e+02 4.4539294539e+02 0.0000000000e+00 0.0000e+00 1.0000e+00
       22  1    1    2    0    0 -3.9649449013e+03 +3.1527646070e+03 -2.9403015538e+03 5.8571397427e+03 0.0000000000e+00 0.0000e+00 1.0000e+00
</event>
<event>
 6      1 +1.4834189e-01 1.00030800e+04 7.81653100e-03 6.93853900e-02
  1000022 -1    0    0    0    0 +0.0000000000e+00 +0.0000000000e+00 +4.4721471353e+01 1.0000100000e+04 1.0000000000e+04 0.0000e+00 1.0000e+00
  1000022 -1    0    0    0    0 -0.0000000000e+00 -0.0000000000e+00 -4.4721471353e+01 1.0000100000e+04 1.0000000000e+04 0.0000e+00 1.0000e+00
      -24  1    1    2    0    0 -1.7043321688e+03 +8.4313081268e+03 +4.3897461366e+03 9.6575332609e+03 7.9829010000e+01 0.0000e+00 1.0000e+00
       24  1    1    2    0    0 +1.7628960263e+03 -8.7167454179e+03 -4.5169404923e+03 9.9748973509e+03 7.9829010000e+01 0.0000e+00 1.0000e+00
       22  1    1    2    0    0 -5.5523613671e+01 +2.9857359166e+02 +1.5194627104e+02 3.3958317184e+02 0.0000000000e+00 0.0000e+00 1.0000e+00
       22  1    1    2    0    0 -3.0402438758e+00 -1.3136300618e+01 -2.4751915373e+01 2.8186216337e+01 0.0000000000e+00 0.0000e+00 1.0000e+00
</event>
<event>
 6      1 +1.4834189e-01 1.00004900e+04 7.81653100e-03 6.93869600e-02
  1000022 -1    0    0    0    0 +0.0000000000e+00 +0.0000000000e+00 +4.4721471353e+01 1.0000100000e+04 1.0000000000e+04 0.0000e+00 -1.0000e+00
  1000022 -1    0    0    0    0 -0.0000000000e+00 -0.0000000000e+00 -4.4721471353e+01 1.0000100000e+04 1.0000000000e+04 0.0000e+00 -1.0000e+00
      -24  1    1    2    0    0 +3.9884107532e+03 -7.5276308064e+03 -4.8064700697e+03 9.7816753726e+03 7.9829010000e+01 0.0000e+00 1.0000e+00
       24  1    1    2    0    0 -4.0546917283e+03 +7.6524506529e+03 +4.8745652236e+03 9.9382234226e+03 7.9829010000e+01 0.0000e+00 1.0000e+00
       22  1    1    2    0    0 -1.8679592822e+01 +4.5673017912e+01 +3.7979949526e+01 6.2268999664e+01 0.0000000000e+00 0.0000e+00 1.0000e+00
       22  1    1    2    0    0 +8.4960567923e+01 -1.7049286444e+02 -1.0607510344e+02 2.1803220518e+02 0.0000000000e+00 0.0000e+00 1.0000e+00
</event>
<event>
 6      1 +1.4834189e-01 1.02945400e+04 7.81653100e-03 6.92124200e-02
  1000022 -1    0    0    0    0 +0.0000000000e+00 +0.0000000000e+00 +4.4721471353e+01 1.0000100000e+04 1.0000000000e+04 0.0000e+00 -1.0000e+00
  1000022 -1    0    0    0    0 -0.0000000000e+00 -0.0000000000e+00 -4.4721471353e+01 1.0000100000e+04 1.0000000000e+04 0.0000e+00 -1.0000e+00
      -24  1    1    2    0    0 +3.3423959236e+03 +3.4855783954e+03 +8.4185907597e+03 9.7056638264e+03 7.9829010000e+01 0.0000e+00 -1.0000e+00
       24  1    1    2    0    0 -6.5742143991e+02 -1.8129136549e+02 -9.1049914918e+02 1.1403731321e+03 7.9829010000e+01 0.0000e+00 -1.0000e+00
       22  1    1    2    0    0 -1.0746893748e+03 -3.0431664688e+03 -6.4424647522e+03 7.2056347043e+03 0.0000000000e+00 0.0000e+00 -1.0000e+00
       22  1    1    2    0    0 -1.6102851090e+03 -2.6112056112e+02 -1.0656268584e+03 1.9485283372e+03 0.0000000000e+00 0.0000e+00 -1.0000e+00
</event>
<event>
 6      1 +1.4834189e-01 1.00454200e+04 7.81653100e-03 6.93599000e-02
  1000022 -1    0    0    0    0 +0.0000000000e+00 +0.0000000000e+00 +4.4721471353e+01 1.0000100000e+04 1.0000000000e+04 0.0000e+00 1.0000e+00
  1000022 -1    0    0    0    0 -0.0000000000e+00 -0.0000000000e+00 -4.4721471353e+01 1.0000100000e+04 1.0000000000e+04 0.0000e+00 1.0000e+00
      -24  1    1    2    0    0 -8.3853853889e+02 -9.8973940407e+03 +6.5555072667e+02 9.9547815197e+03 7.9829010000e+01 0.0000e+00 -1.0000e+00
       24  1    1    2    0    0 +5.3992353736e+02 +8.4305658380e+03 -6.0509301266e+02 8.4698564333e+03 7.9829010000e+01 0.0000e+00 -1.0000e+00
       22  1    1    2    0    0 +1.1658802132e+02 +1.9145118136e+02 -1.7056889952e+02 2.8167369605e+02 0.0000000000e+00 0.0000e+00 -1.0000e+00
       22  1    1    2    0    0 +1.8202698021e+02 +1.2753770213e+03 +1.2011118552e+02 1.2938883510e+03 0.0000000000e+00 0.0000e+00 1.0000e+00
</event>
<event>
 6      1 +1.4834189e-01 1.00854800e+04 7.81653100e-03 6.93359000e-02
  1000022 -1    0    0    0    0 +0.0000000000e+00 +0.0000000000e+00 +4.4721471353e+01 1.0000100000e+04 1.0000000000e+04 0.0000e+00 -1.0000e+00
  1000022 -1    0    0    0    0 -0.0000000000e+00 -0.0000000000e+00 -4.4721471353e+01 1.0000100000e+04 1.0000000000e+04 0.0000e+00 -1.0000e+00
      -24  1    1    2    0    0 +3.5277076337e+03 +1.6840721502e+03 -7.9970099116e+03 8.9016493052e+03 7.9829010000e+01 0.0000e+00 -1.0000e+00
       24  1    1    2    0    0 -3.8164259372e+02 -3.3280237035e+02 +1.0355964286e+03 1.1555263393e+03 7.9829010000e+01 0.0000e+00 -1.0000e+00
       22  1    1    2    0    0 -3.9601765188e+03 -1.9668109440e+03 +7.5612292373e+03 8.7591969340e+03 0.0000000000e+00 0.0000e+00 -1.0000e+00
       22  1    1    2    0    0 +8.1411147884e+02 +6.1554116418e+02 -5.9981575427e+02 1.1838274215e+03 0.0000000000e+00 0.0000e+00 -1.0000e+00
</event>
<event>
 6      1 +1.4834189e-01 1.00013800e+04 7.81653100e-03 6.93864200e-02
  1000022 -1    0    0    0    0 +0.0000000000e+00 +0.0000000000e+00 +4.4721471353e+01 1.0000100000e+04 1.0000000000e+04 0.0000e+00 1.0000e+00
  1000022 -1    0    0    0    0 -0.0000000000e+00 -0.0000000000e+00 -4.4721471353e+01 1.0000100000e+04 1.0000000000e+04 0.0000e+00 1.0000e+00
      -24  1    1    2    0    0 -1.5210222560e+03 +1.2696525426e+03 -2.4591005146e+03 3.1589672828e+03 7.9829010000e+01 0.0000e+00 -1.0000e+00
       24  1    1    2    0    0 +4.5054551964e+03 -4.2211344595e+03 +7.7982684084e+03 9.9466811295e+03 7.9829010000e+01 0.0000e+00 -1.0000e+00
       22  1    1    2    0    0 -3.0035725745e+03 +2.9648687117e+03 -5.3857853285e+03 6.8424102693e+03 0.0000000000e+00 0.0000e+00 -1.0000e+00
       22  1    1    2    0    0 +1.9139634037e+01 -1.3386794864e+01 +4.6617434691e+01 5.2141318404e+01 0.0000000000e+00 0.0000e+00 1.0000e+00
</event>
<event>
 6      1 +1.4834189e-01 1.00004800e+04 7.81653100e-03 6.93869600e-02
  1000022 -1    0    0    0    0 +0.0000000000e+00 +0.0000000000e+00 +4.4721471353e+01 1.0000100000e+04 1.0000000000e+04 0.0000e+00 1.0000e+00
  1000022 -1    0    0    0    0 -0.0000000000e+00 -0.0000000000e+00 -4.4721471353e+01 1.0000100000e+04 1.0000000000e+04 0.0000e+00 1.0000e+00
      -24  1    1    2    0    0 +5.8975606661e+03 -5.8187841189e+03 +5.2661444541e+03 9.8172358898e+03 7.9829010000e+01 0.0000e+00 1.0000e+00
       24  1    1    2    0    0 -5.9012436534e+03 +5.8113456484e+03 -5.2836924094e+03 9.8244690977e+03 7.9829010000e+01 0.0000e+00 1.0000e+00
       22  1    1    2    0    0 -1.0171699673e+02 +1.1683962184e+02 -8.3558861391e+01 1.7601115866e+02 0.0000000000e+00 0.0000e+00 1.0000e+00
       22  1    1    2    0    0 +1.0539998397e+02 -1.0940115135e+02 +1.0110681673e+02 1.8248385388e+02 0.0000000000e+00 0.0000e+00 -1.0000e+00
</event>
<event>
 6      1 +1.4834189e-01 1.00329100e+04 7.81653100e-03 6.93674200e-02
  1000022 -1    0    0    0    0 +0.0000000000e+00 +0.0000000000e+00 +4.4721471353e+01 1.0000100000e+04 1.0000000000e+04 0.0000e+00 1.0000e+00
  1000022 -1    0    0    0    0 -0.0000000000e+00 -0.0000000000e+00 -4.4721471353e+01 1.0000100000e+04 1.0000000000e+04 0.0000e+00 1.0000e+00
      -24  1    1    2    0    0 +3.3419925035e+03 -8.2675569383e+03 -3.1337085315e+03 9.4524025227e+03 7.9829010000e+01 0.0000e+00 -1.0000e+00
       24  1    1    2    0    0 -2.5437562441e+03 +6.0228207698e+03 +2.8140172715e+03 7.1182955635e+03 7.9829010000e+01 0.0000e+00 -1.0000e+00
       22  1    1    2    0    0 -9.5059780917e+02 +2.7171457086e+03 +4.5654527325e+02 2.9146098509e+03 0.0000000000e+00 0.0000e+00 -1.0000e+00
       22  1    1    2    0    0 +1.5236154977e+02 -4.7240954013e+02 -1.3685401319e+02 5.1489206284e+02 0.0000000000e+00 0.0000e+00 -1.0000e+00
</event>
<event>
 6      1 +1.4834189e-01 1.01717700e+04 7.81653100e-03 6.92845700e-02
  1000022 -1    0    0    0    0 +0.0000000000e+00 +0.0000000000e+00 +4.4721471353e+01 1.0000100000e+04 1.0000000000e+04 0.0000e+00 1.0000e+00
  1000022 -1    0    0    0    0 -0.0000000000e+00 -0.0000000000e+00 -4.4721471353e+01 1.0000100000e+04 1.0000000000e+04 0.0000e+00 1.0000e+00
      -24  1    1    2    0    0 +7.2685692257e+02 +8.1654119500e+03 -3.7465079186e+03 9.0135990345e+03 7.9829010000e+01 0.0000e+00 -1.0000e+00
       24  1    1    2    0    0 -1.3297003870e+03 -8.5231697294e+03 +4.6388113305e+03 9.7947674085e+03 7.9829010000e+01 0.0000e+00 -1.0000e+00
       22  1    1    2    0    0 +6.0738662906e+02 +3.8788060583e+02 -9.0663303577e+02 1.1581680979e+03 0.0000000000e+00 0.0000e+00 -1.0000e+00
       22  1    1    2    0    0 -4.5431646587e+00 -3.0122826482e+01 +1.4329623820e+01 3.3665459141e+01 0.0000000000e+00 0.0000e+00 1.0000e+00
</event>
<event>
 6      1 +1.4834189e-01 1.00078300e+04 7.81653100e-03 6.93825300e-02
  1000022 -1    0    0    0    0 +0.0000000000e+00 +0.0000000000e+00 +4.4721471353e+01 1.0000100000e+04 1.0000000000e+04 0.0000e+00 1.0000e+00
  1000022 -1    0    0    0    0 -0.0000000000e+00 -0.0000000000e+00 -4.4721471353e+01 1.0000100000e+04 1.0000000000e+04 0.0000e+00 1.0000e+00
      -24  1    1    2    0    0 +6.3589983516e+03 -3.0315899801e+02 +7.6045646358e+03 9.9178899663e+03 7.9829010000e+01 0.0000e+00 -1.0000e+00
       24  1    1    2    0    0 -6.4084866008e+03 +2.8739052721e+02 -7.6609302185e+03 9.9923730070e+03 7.9829010000e+01 0.0000e+00 -1.0000e+00
       22  1    1    2    0    0 -7.7977556429e+00 +9.3969562148e+00 +1.2762058610e+01 1.7662896680e+01 0.0000000000e+00 0.0000e+00 -1.0000e+00
       22  1    1    2    0    0 +5.7286004893e+01 +6.3715145840e+00 +4.3603524044e+01 7.2274129976e+01 0.0000000000e+00 0.0000e+00 -1.0000e+00
</event>
<event>
 6      1 +1.4834189e-01 1.00993400e+04 7.81653100e-03 6.93276200e-02
  1000022 -1    0    0    0    0 +0.0000000000e+00 +0.0000000000e+00 +4.4721471353e+01 1.0000100000e+04 1.0000000000e+04 0.0000e+00 1.0000e+00
  1000022 -1    0    0    0    0 -0.0000000000e+00 -0.0000000000e+00 -4.4721471353e+01 1.0000100000e+04 1.0000000000e+04 0.0000e+00 1.0000e+00
      -24  1    1    2    0    0 +5.9007199711e+03 -4.7619554793e+03 -1.0581811796e+02 7.5836855360e+03 7.9829010000e+01 0.0000e+00 1.0000e+00
       24  1    1    2    0    0 -6.1153213481e+03 +5.3907018273e+03 -5.4534666060e+02 8.1707158213e+03 7.9829010000e+01 0.0000e+00 1.0000e+00
       22  1    1    2    0    0 -1.6451464469e+03 +7.5342139558e+02 +6.6740348275e+02 1.9286207610e+03 0.0000000000e+00 0.0000e+00 1.0000e+00
       22  1    1    2    0    0 +1.8597478239e+03 -1.3821677436e+03 -1.6238704192e+01 2.3171778817e+03 0.0000000000e+00 0.0000e+00 1.0000e+00
</event>
<event>
 6      1 +1.4834189e-01 1.00054400e+04 7.81653100e-03 6.93839700e-02
  1000022 -1    0    0    0    0 +0.0000000000e+00 +0.0000000000e+00 +4.4721471353e+01 1.0000100000e+04 1.0000000000e+04 0.0000e+00 -1.0000e+00
  1000022 -1    0    0    0    0 -0.0000000000e+00 -0.0000000000e+00 -4.4721471353e+01 1.0000100000e+04 1.0000000000e+04 0.0000e+00 -1.0000e+00
      -24  1    1    2    0    0 +5.5470101236e+03 +1.7052853641e+03 +1.5292638115e+03 6.0018613746e+03 7.9829010000e+01 0.0000e+00 -1.0000e+00
       24  1    1    2    0    0 -8.3077590924e+03 -2.3108409994e+03 -1.9842566603e+03 8.8488696695e+03 7.9829010000e+01 0.0000e+00 -1.0000e+00
       22  1    1    2    0    0 +3.8288278024e+03 +8.9973297292e+02 +7.4779462289e+02 4.0035782196e+03 0.0000000000e+00 0.0000e+00 -1.0000e+00
       22  1    1    2    0    0 -1.0680788335e+03 -2.9417733760e+02 -2.9280177403e+02 1.1458907363e+03 0.0000000000e+00 0.0000e+00 -1.0000e+00
</event>
<event>
 6      1 +1.4834189e-01 1.00025600e+04 7.81653100e-03 6.93857100e-02
  1000022 -1    0    0    0    0 +0.0000000000e+00 +0.0000000000e+00 +4.4721471353e+01 1.0000100000e+04 1.0000000000e+04 0.0000e+00 -1.0000e+00
  1000022 -1    0    0    0    0 -0.0000000000e+00 -0.0000000000e+00 -4.4721471353e+01 1.0000100000e+04 1.0000000000e+04 0.0000e+00 -1.0000e+00
      -24  1    1    2    0    0 -1.9085239153e+03 -8.5144481173e+03 -3.7375227161e+03 9.4928256595e+03 7.9829010000e+01 0.0000e+00 1.0000e+00
       24  1    1    2    0    0 +2.0079453786e+03 +8.9331059089e+03 +3.9144826838e+03 9.9580004607e+03 7.9829010000e+01 0.0000e+00 1.0000e+00
       22  1    1    2    0    0 -1.0979799767e+02 -4.4514092101e+02 -2.1126087541e+02 5.0481402251e+02 0.0000000000e+00 0.0000e+00 1.0000e+00
       22  1    1    2    0    0 +1.0376534384e+01 +2.6483129452e+01 +3.4300907711e+01 4.4559857285e+01 0.0000000000e+00 0.0000e+00 1.0000e+00
</event>
<event>
 6      1 +1.4834189e-01 1.03062400e+04 7.81653100e-03 6.92056000e-02
  1000022 -1    0    0    0    0 +0.0000000000e+00 +0.0000000000e+00 +4.4721471353e+01 1.0000100000e+04 1.0000000000e+04 0.0000e+00 1.0000e+00
  1000022 -1    0    0    0    0 -0.0000000000e+00 -0.0000000000e+00 -4.4721471353e+01 1.0000100000e+04 1.0000000000e+04 0.0000e+00 1.0000e+00
      -24  1    1    2    0    0 -3.7890069936e+03 +1.9113416326e+03 +8.0402961631e+03 9.0918939663e+03 7.9829010000e+01 0.0000e+00 1.0000e+00
       24  1    1    2    0    0 +2.8015564495e+03 -2.6835166916e+03 -7.9567418455e+03 8.8524625862e+03 7.9829010000e+01 0.0000e+00 1.0000e+00
       22  1    1    2    0    0 -1.1835960116e+02 +1.0244627006e+02 +5.8136110471e+02 6.0206724501e+02 0.0000000000e+00 0.0000e+00 1.0000e+00
       22  1    1    2    0    0 +1.1058101452e+03 +6.6972878896e+02 -6.6491542231e+02 1.4537762025e+03 0.0000000000e+00 0.0000e+00 -1.0000e+00
</event>
<event>
 6      1 +1.4834189e-01 1.00179600e+04 7.81653100e-03 6.93764200e-02
  1000022 -1    0    0    0    0 +0.0000000000e+00 +0.0000000000e+00 +4.4721471353e+01 1.0000100000e+04 1.0000000000e+04 0.0000e+00 1.0000e+00
  1000022 -1    0    0    0    0 -0.0000000000e+00 -0.0000000000e+00 -4.4721471353e+01 1.0000100000e+04 1.0000000000e+04 0.0000e+00 1.0000e+00
      -24  1    1    2    0    0 -5.6784702733e+03 +6.5896399247e+03 -4.8562796895e+03 9.9628411648e+03 7.9829010000e+01 0.0000e+00 1.0000e+00
       24  1    1    2    0    0 +1.7433366102e+02 -2.6041020645e+02 +2.9884228329e+01 3.2476366627e+02 7.9829010000e+01 0.0000e+00 0.0000e+00
       22  1    1    2    0    0 +5.5071991576e+03 -6.3479746618e+03 +4.8303287805e+03 9.6931986978e+03 0.0000000000e+00 0.0000e+00 1.0000e+00
       22  1    1    2    0    0 -3.0625452972e+00 +1.8744943542e+01 -3.9333193242e+00 1.9396471148e+01 0.0000000000e+00 0.0000e+00 1.0000e+00
</event>
<event>
 6      1 +1.4834189e-01 1.00533600e+04 7.81653100e-03 6.93551300e-02
  1000022 -1    0    0    0    0 +0.0000000000e+00 +0.0000000000e+00 +4.4721471353e+01 1.0000100000e+04 1.0000000000e+04 0.0000e+00 -1.0000e+00
  1000022 -1    0    0    0    0 -0.0000000000e+00 -0.0000000000e+00 -4.4721471353e+01 1.0000100000e+04 1.0000000000e+04 0.0000e+00 -1.0000e+00
      -24  1    1    2    0    0 +1.4167118059e+03 -2.6499468949e+02 +1.3587123614e+03 1.9823638612e+03 7.9829010000e+01 0.0000e+00 1.0000e+00
       24  1    1    2    0    0 -8.7768854784e+03 +5.6299930246e+02 -4.5675419825e+03 9.9105751271e+03 7.9829010000e+01 0.0000e+00 1.0000e+00
       22  1    1    2    0    0 +7.3928382430e+03 -3.0037261195e+02 +3.2243977304e+03 8.0709988054e+03 0.0000000000e+00 0.0000e+00 1.0000e+00
       22  1    1    2    0    0 -3.2664570469e+01 +2.3679989685e+00 -1.5568109204e+01 3.6262206320e+01 0.0000000000e+00 0.0000e+00 -1.0000e+00
</event>
<event>
 6      1 +1.4834189e-01 1.04608200e+04 7.81653100e-03 6.91163000e-02
  1000022 -1    0    0    0    0 +0.0000000000e+00 +0.0000000000e+00 +4.4721471353e+01 1.0000100000e+04 1.0000000000e+04 0.0000e+00 -1.0000e+00
  1000022 -1    0    0    0    0 -0.0000000000e+00 -0.0000000000e+00 -4.4721471353e+01 1.0000100000e+04 1.0000000000e+04 0.0000e+00 -1.0000e+00
      -24  1    1    2    0    0 +2.1966399203e+03 -3.3427003794e+03 +5.8760825668e+03 7.1086983174e+03 7.9829010000e+01 0.0000e+00 1.0000e+00
       24  1    1    2    0    0 -5.2602562227e+03 +4.4333770137e+03 -6.6082018375e+03 9.5393831808e+03 7.9829010000e+01 0.0000e+00 1.0000e+00
       22  1    1    2    0    0 +2.4870888450e+01 -3.0559092400e+01 +4.7562913019e+01 6.1762852229e+01 0.0000000000e+00 0.0000e+00 -1.0000e+00
       22  1    1    2    0    0 +3.0387454139e+03 -1.0601175420e+03 +6.8455635766e+02 3.2903556495e+03 0.0000000000e+00 0.0000e+00 1.0000e+00
</event>
<event>
 6      1 +1.4834189e-01 1.04809300e+04 7.81653100e-03 6.91047900e-02
  1000022 -1    0    0    0    0 +0.0000000000e+00 +0.0000000000e+00 +4.4721471353e+01 1.0000100000e+04 1.0000000000e+04 0.0000e+00 1.0000e+00
  1000022 -1    0    0    0    0 -0.0000000000e+00 -0.0000000000e+00 -4.4721471353e+01 1.0000100000e+04 1.0000000000e+04 0.0000e+00 1.0000e+00
      -24  1    1    2    0    0 -7.9608675904e+03 +5.0621354888e+03 -7.9199939862e+02 9.4675373892e+03 7.9829010000e+01 0.0000e+00 1.0000e+00
       24  1    1    2    0    0 +2.2843555711e+03 -2.1266954646e+02 +1.7724492064e+03 2.9002512945e+03 7.9829010000e+01 0.0000e+00 1.0000e+00
       22  1    1    2    0    0 +5.7205706992e+03 -4.8765765223e+03 -9.8018790250e+02 7.5806791270e+03 0.0000000000e+00 0.0000e+00 1.0000e+00
       22  1    1    2    0    0 -4.4058679889e+01 +2.7110579959e+01 -2.6190525103e-01 5.1732189337e+01 0.0000000000e+00 0.0000e+00 1.0000e+00
</event>
<event>
 6      1 +1.4834189e-01 1.00048900e+04 7.81653100e-03 6.93843000e-02
  1000022 -1    0    0    0    0 +0.0000000000e+00 +0.0000000000e+00 +4.4721471353e+01 1.0000100000e+04 1.0000000000e+04 0.0000e+00 -1.0000e+00
  1000022 -1    0    0    0    0 -0.0000000000e+00 -0.0000000000e+00 -4.4721471353e+01 1.0000100000e+04 1.0000000000e+04 0.0000e+00 -1.0000e+00
      -24  1    1    2    0    0 -4.3380495220e+03 -4.4439887636e+03 +7.6076382317e+03 9.8209084061e+03 7.9829010000e+01 0.0000e+00 -1.0000e+00
       24  1    1    2    0    0 +4.4270319182e+03 +4.5411947831e+03 -7.7252055762e+03 9.9953106769e+03 7.9829010000e+01 0.0000e+00 -1.0000e+00
       22  1    1    2    0    0 -1.3205495822e+01 +9.3383471233e-01 +1.8345058591e-01 1.3239744004e+01 0.0000000000e+00 0.0000e+00 -1.0000e+00
       22  1    1    2    0    0 -7.5776900405e+01 -9.8139854158e+01 +1.1738389390e+02 1.7074117299e+02 0.0000000000e+00 0.0000e+00 1.0000e+00
</event>
<event>
 6      1 +1.4834189e-01 1.00056800e+04 7.81653100e-03 6.93838300e-02
  1000022 -1    0    0    0    0 +0.0000000000e+00 +0.0000000000e+00 +4.4721471353e+01 1.0000100000e+04 1.0000000000e+04 0.0000e+00 -1.0000e+00
  1000022 -1    0    0    0    0 -0.0000000000e+00 -0.0000000000e+00 -4.4721471353e+01 1.0000100000e+04 1.0000000000e+04 0.0000e+00 -1.0000e+00
      -24  1    1    2    0    0 -5.3682664644e+03 +5.9092500122e+03 +4.5584227821e+03 9.1936451678e+03 7.9829010000e+01 0.0000e+00 1.0000e+00
       24  1    1    2    0    0 +5.8298785638e+03 -6.4050328064e+03 -4.9503398503e+03 9.9761799615e+03 7.9829010000e+01 0.0000e+00 1.0000e+00
       22  1    1    2    0    0 -4.5805680121e+02 +5.0554826963e+02 +4.1952736723e+02 8.0087345936e+02 0.0000000000e+00 0.0000e+00 1.0000e+00
       22  1    1    2    0    0 -3.5552982085e+00 -9.7654754634e+00 -2.7610299067e+01 2.9501411338e+01 0.0000000000e+00 0.0000e+00 -1.0000e+00
</event>
<event>
 6      1 +1.4834189e-01 1.00088700e+04 7.81653100e-03 6.93819000e-02
  1000022 -1    0    0    0    0 +0.0000000000e+00 +0.0000000000e+00 +4.4721471353e+01 1.0000100000e+04 1.0000000000e+04 0.0000e+00 1.0000e+00
  1000022 -1    0    0    0    0 -0.0000000000e+00 -0.0000000000e+00 -4.4721471353e+01 1.0000100000e+04 1.0000000000e+04 0.0000e+00 1.0000e+00
      -24  1    1    2    0    0 -6.5715034867e+02 -5.7346385326e+03 -5.5977755113e+03 8.0411062066e+03 7.9829010000e+01 0.0000e+00 1.0000e+00
       24  1    1    2    0    0 +7.8260268777e+02 +7.1501720503e+03 +6.9341872927e+03 9.9913339147e+03 7.9829010000e+01 0.0000e+00 1.0000e+00
       22  1    1    2    0    0 -6.0528185127e+01 -1.3507510959e+03 -1.2638113520e+03 1.8507866753e+03 0.0000000000e+00 0.0000e+00 1.0000e+00
       22  1    1    2    0    0 -6.4924153972e+01 -6.4782421763e+01 -7.2600429406e+01 1.1697320329e+02 0.0000000000e+00 0.0000e+00 -1.0000e+00
</event>
<event>
 6      1 +1.4834189e-01 1.01766300e+04 7.81653100e-03 6.92817000e-02
  1000022 -1    0    0    0    0 +0.0000000000e+00 +0.0000000000e+00 +4.4721471353e+01 1.0000100000e+04 1.0000000000e+04 0.0000e+00 -1.0000e+00
  1000022 -1    0    0    0    0 -0.0000000000e+00 -0.0000000000e+00 -4.4721471353e+01 1.0000100000e+04 1.0000000000e+04 0.0000e+00 -1.0000e+00
      -24  1    1    2    0    0 -4.2900776775e+03 -2.3262509912e+03 -7.1214623628e+03 8.6335281901e+03 7.9829010000e+01 0.0000e+00 -1.0000e+00
       24  1    1    2    0    0 +9.2435550467e+02 -8.7502218160e+00 +9.9683403982e+02 1.3618224698e+03 7.9829010000e+01 0.0000e+00 1.0000e+00
       22  1    1    2    0    0 -1.4822531510e+03 -3.2477509232e+02 -2.8036416060e+02 1.5430999082e+03 0.0000000000e+00 0.0000e+00 -1.0000e+00
       22  1    1    2    0    0 +4.8479753238e+03 +2.6597763054e+03 +6.4049924835e+03 8.4617494320e+03 0.0000000000e+00 0.0000e+00 -1.0000e+00
</event>
<event>
 6      1 +1.4834189e-01 1.00222200e+04 7.81653100e-03 6.93738500e-02
  1000022 -1    0    0    0    0 +0.0000000000e+00 +0.0000000000e+00 +4.4721471353e+01 1.0000100000e+04 1.0000000000e+04 0.0000e+00 1.0000e+00
  1000022 -1    0    0    0    0 -0.0000000000e+00 -0.0000000000e+00 -4.4721471353e+01 1.0000100000e+04 1.0000000000e+04 0.0000e+00 1.0000e+00
      -24  1    1    2    0    0 +8.0055539644e+03 -5.6563418445e+03 -1.5479083467e+03 9.9239856035e+03 7.9829010000e+01 0.0000e+00 -1.0000e+00
       24  1    1    2    0    0 -7.5612932224e+03 +5.3743530136e+03 +1.3953378045e+03 9.3813733413e+03 7.9829010000e+01 0.0000e+00 -1.0000e+00
       22  1    1    2    0    0 +2.9284899081e+01 -6.9628176146e+01 +6.2806182017e+01 9.8235964530e+01 0.0000000000e+00 0.0000e+00 -1.0000e+00
       22  1    1    2    0    0 -4.7354564104e+02 +3.5161700701e+02 +8.9764360225e+01 5.9660509061e+02 0.0000000000e+00 0.0000e+00 -1.0000e+00
</event>
<event>
 6      1 +1.4834189e-01 1.01540600e+04 7.81653100e-03 6.92950600e-02
  1000022 -1    0    0    0    0 +0.0000000000e+00 +0.0000000000e+00 +4.4721471353e+01 1.0000100000e+04 1.0000000000e+04 0.0000e+00 1.0000e+00
  1000022 -1    0    0    0    0 -0.0000000000e+00 -0.0000000000e+00 -4.4721471353e+01 1.0000100000e+04 1.0000000000e+04 0.0000e+00 1.0000e+00
      -24  1    1    2    0    0 -3.0110206456e+03 +3.0687191716e+03 -2.1266578361e+03 4.7971167283e+03 7.9829010000e+01 0.0000e+00 -1.0000e+00
       24  1    1    2    0    0 +6.5618334488e+02 -6.0031991759e+03 +5.1525577970e+03 7.9387783348e+03 7.9829010000e+01 0.0000e+00 -1.0000e+00
       22  1    1    2    0    0 +1.8842134429e+03 -1.1598736757e+03 -1.0915593879e+02 2.2152837879e+03 0.0000000000e+00 0.0000e+00 -1.0000e+00
       22  1    1    2    0    0 +4.7062385785e+02 +4.0943536799e+03 -2.9167440222e+03 5.0490211489e+03 0.0000000000e+00 0.0000e+00 -1.0000e+00
</event>
<event>
 6      1 +1.4834189e-01 1.00130000e+04 7.81653100e-03 6.93794100e-02
  1000022 -1    0    0    0    0 +0.0000000000e+00 +0.0000000000e+00 +4.4721471353e+01 1.0000100000e+04 1.0000000000e+04 0.0000e+00 1.0000e+00
  1000022 -1    0    0    0    0 -0.0000000000e+00 -0.0000000000e+00 -4.4721471353e+01 1.0000100000e+04 1.0000000000e+04 0.0000e+00 1.0000e+00
      -24  1    1    2    0    0 -4.2846501247e+02 -5.6020603851e+02 -9.7312957932e+03 9.7571462814e+03 7.9829010000e+01 0.0000e+00 1.0000e+00
       24  1    1    2    0    0 +4.9103633433e+02 +5.3928892640e+02 +9.9602081765e+03 9.9871952428e+03 7.9829010000e+01 0.0000e+00 1.0000e+00
       22  1    1    2    0    0 +1.8613231050e+01 +4.2311289220e+00 -9.5154028203e+00 2.1328331226e+01 0.0000000000e+00 0.0000e+00 1.0000e+00
       22  1    1    2    0    0 -8.1184552914e+01 +1.6685983191e+01 -2.1939698048e+02 2.3453014456e+02 0.0000000000e+00 0.0000e+00 1.0000e+00
</event>
<event>
 6      1 +1.4834189e-01 1.00552200e+04 7.81653100e-03 6.93540200e-02
  1000022 -1    0    0    0    0 +0.0000000000e+00 +0.0000000000e+00 +4.4721471353e+01 1.0000100000e+04 1.0000000000e+04 0.0000e+00 1.0000e+00
  1000022 -1    0    0    0    0 -0.0000000000e+00 -0.0000000000e+00 -4.4721471353e+01 1.0000100000e+04 1.0000000000e+04 0.0000e+00 1.0000e+00
      -24  1    1    2    0    0 -2.5700893664e+02 -1.3530010416e+01 +1.0320840754e+01 2.6965875711e+02 7.9829010000e+01 0.0000e+00 -1.0000e+00
       24  1    1    2    0    0 +5.9842071971e+03 +3.4408575990e+03 +7.1329390927e+03 9.9265013759e+03 7.9829010000e+01 0.0000e+00 -1.0000e+00
       22  1    1    2    0    0 -5.7408123605e+03 -3.4169250068e+03 -7.1501725824e+03 9.7855644200e+03 0.0000000000e+00 0.0000e+00 -1.0000e+00
       22  1    1    2    0    0 +1.3614099992e+01 -1.0402581840e+01 +6.9126489356e+00 1.8475447027e+01 0.0000000000e+00 0.0000e+00 1.0000e+00
</event>
<event>
 6      1 +1.4834189e-01 1.00135600e+04 7.81653100e-03 6.93790700e-02
  1000022 -1    0    0    0    0 +0.0000000000e+00 +0.0000000000e+00 +4.4721471353e+01 1.0000100000e+04 1.0000000000e+04 0.0000e+00 -1.0000e+00
  1000022 -1    0    0    0    0 -0.0000000000e+00 -0.0000000000e+00 -4.4721471353e+01 1.0000100000e+04 1.0000000000e+04 0.0000e+00 -1.0000e+00
      -24  1    1    2    0    0 +3.3722226581e+03 +2.6347537697e+03 +9.0229059872e+03 9.9866419885e+03 7.9829010000e+01 0.0000e+00 -1.0000e+00
       24  1    1    2    0    0 -2.9969182612e+03 -2.2856892530e+03 -8.3549204348e+03 9.1660767272e+03 7.9829010000e+01 0.0000e+00 -1.0000e+00
       22  1    1    2    0    0 -6.2185227037e+01 -7.1578865045e+01 -1.8936486984e+02 2.1177721859e+02 0.0000000000e+00 0.0000e+00 -1.0000e+00
       22  1    1    2    0    0 -3.1311916987e+02 -2.7748565160e+02 -4.7862068257e+02 6.3570406571e+02 0.0000000000e+00 0.0000e+00 -1.0000e+00
</event>
<event>
 6      1 +1.4834189e-01 1.00163200e+04 7.81653100e-03 6.93774100e-02
  1000022 -1    0    0    0    0 +0.0000000000e+00 +0.0000000000e+00 +4.4721471353e+01 1.0000100000e+04 1.0000000000e+04 0.0000e+00 1.0000e+00
  1000022 -1    0    0    0    0 -0.0000000000e+00 -0.0000000000e+00 -4.4721471353e+01 1.0000100000e+04 1.0000000000e+04 0.0000e+00 1.0000e+00
      -24  1    1    2    0    0 -3.3480470236e+03 +5.7923740788e+03 -7.4101557446e+03 9.9838768607e+03 7.9829010000e+01 0.0000e+00 1.0000e+00
       24  1    1    2    0    0 +3.3569534154e+03 -5.6294962348e+03 +7.2934737461e+03 9.8061968187e+03 7.9829010000e+01 0.0000e+00 1.0000e+00
       22  1    1    2    0    0 +2.3993516543e+01 -3.6124666188e+01 +3.5562814175e+01 5.6083813131e+01 0.0000000000e+00 0.0000e+00 1.0000e+00
       22  1    1    2    0    0 -3.2899908301e+01 -1.2675317783e+02 +8.1119184264e+01 1.5404250749e+02 0.0000000000e+00 0.0000e+00 1.0000e+00
</event>
<event>
 6      1 +1.4834189e-01 1.00018200e+04 7.81653100e-03 6.93861600e-02
  1000022 -1    0    0    0    0 +0.0000000000e+00 +0.0000000000e+00 +4.4721471353e+01 1.0000100000e+04 1.0000000000e+04 0.0000e+00 -1.0000e+00
  1000022 -1    0    0    0    0 -0.0000000000e+00 -0.0000000000e+00 -4.4721471353e+01 1.0000100000e+04 1.0000000000e+04 0.0000e+00 -1.0000e+00
      -24  1    1    2    0    0 +7.7354566043e+03 -6.0941674586e+03 +1.3559056912e+03 9.9408761588e+03 7.9829010000e+01 0.0000e+00 1.0000e+00
       24  1    1    2    0    0 -7.0934080576e+03 +5.6835773781e+03 -1.2637569153e+03 9.1773059171e+03 7.9829010000e+01 0.0000e+00 1.0000e+00
       22  1    1    2    0    0 +4.3521730615e+01 -3.5148320747e+01 +1.3330999749e+01 5.7508790992e+01 0.0000000000e+00 0.0000e+00 -1.0000e+00
       22  1    1    2    0    0 -6.8557027737e+02 +4.4573840118e+02 -1.0547977556e+02 8.2450913309e+02 0.0000000000e+00 0.0000e+00 1.0000e+00
</event>
<event>
 6      1 +1.4834189e-01 9.78310800e+03 7.81653100e-03 6.95199200e-02
  1000022 -1    0    0    0    0 +0.0000000000e+00 +0.0000000000e+00 +4.4721471353e+01 1.0000100000e+04 1.0000000000e+04 0.0000e+00 1.0000e+00
  1000022 -1    0    0    0    0 -0.0000000000e+00 -0.0000000000e+00 -4.4721471353e+01 1.0000100000e+04 1.0000000000e+04 0.0000e+00 1.0000e+00
      -24  1    1    2    0    0 +3.4672680398e+03 -4.4773079615e+03 -2.2964236116e+02 5.6680986695e+03 7.9829010000e+01 0.0000e+00 -1.0000e+00
       24  1    1    2    0    0 -3.7316266771e+02 -1.9463959196e+02 -5.2041549485e+01 4.3152745108e+02 7.9829010000e+01 0.0000e+00 -1.0000e+00
       22  1    1    2    0    0 -5.7334586533e+03 +7.8673480660e+03 +5.2440934528e+02 9.7489855309e+03 0.0000000000e+00 0.0000e+00 -1.0000e+00
       22  1    1    2    0    0 +2.6393532812e+03 -3.1954005126e+03 -2.4272543463e+02 4.1515883485e+03 0.0000000000e+00 0.0000e+00 -1.0000e+00
</event>
<event>
 6      1 +1.4834189e-01 1.00299300e+04 7.81653100e-03 6.93692100e-02
  1000022 -1    0    0    0    0 +0.0000000000e+00 +0.0000000000e+00 +4.4721471353e+01 1.0000100000e+04 1.0000000000e+04 0.0000e+00 -1.0000e+00
  1000022 -1    0    0    0    0 -0.0000000000e+00 -0.0000000000e+00 -4.4721471353e+01 1.0000100000e+04 1.0000000000e+04 0.0000e+00 -1.0000e+00
      -24  1    1    2    0    0 -4.8026778182e+03 +4.8798744626e+03 +7.1596118556e+03 9.9068311578e+03 7.9829010000e+01 0.0000e+00 1.0000e+00
       24  1    1    2    0    0 +4.8742329991e+03 -4.7653695627e+03 -7.1163832402e+03 9.8547540553e+03 7.9829010000e+01 0.0000e+00 1.0000e+00
       22  1    1    2    0    0 -4.0973504740e+01 -1.4464514883e+02 -8.9924495324e+01 1.7517837204e+02 0.0000000000e+00 0.0000e+00 -1.0000e+00
       22  1    1    2    0    0 -3.0581676204e+01 +3.0140248893e+01 +4.6695879919e+01 6.3436414812e+01 0.0000000000e+00 0.0000e+00 -1.0000e+00
</event>
<event>
 6      1 +1.4834189e-01 1.00566200e+04 7.81653100e-03 6.93531800e-02
  1000022 -1    0    0    0    0 +0.0000000000e+00 +0.0000000000e+00 +4.4721471353e+01 1.0000100000e+04 1.0000000000e+04 0.0000e+00 1.0000e+00
  1000022 -1    0    0    0    0 -0.0000000000e+00 -0.0000000000e+00 -4.4721471353e+01 1.0000100000e+04 1.0000000000e+04 0.0000e+00 1.0000e+00
      -24  1    1    2    0    0 +3.0178501703e+03 +8.6617761163e+03 +1.6104175102e+03 9.3130876925e+03 7.9829010000e+01 0.0000e+00 -1.0000e+00
       24  1    1    2    0    0 -2.4297980612e+03 -8.3552310378e+03 -8.4597404392e+02 8.7427598084e+03 7.9829010000e+01 0.0000e+00 -1.0000e+00
       22  1    1    2    0    0 -3.5842255081e+02 -9.8901182570e+02 -5.7909493043e+02 1.2008172445e+03 0.0000000000e+00 0.0000e+00 1.0000e+00
       22  1    1    2    0    0 -2.2962955828e+02 +6.8246674720e+02 -1.8534853587e+02 7.4353525460e+02 0.0000000000e+00 0.0000e+00 -1.0000e+00
</event>
<event>
 6      1 +1.4834189e-01 1.00180700e+04 7.81653100e-03 6.93763600e-02
  1000022 -1    0    0    0    0 +0.0000000000e+00 +0.0000000000e+00 +4.4721471353e+01 1.0000100000e+04 1.0000000000e+04 0.0000e+00 -1.0000e+00
  1000022 -1    0    0    0    0 -0.0000000000e+00 -0.0000000000e+00 -4.4721471353e+01 1.0000100000e+04 1.0000000000e+04 0.0000e+00 -1.0000e+00
      -24  1    1    2    0    0 -9.1633449120e+03 +3.5271979993e+03 -1.5891404128e+03 9.9468465167e+03 7.9829010000e+01 0.0000e+00 1.0000e+00
       24  1    1    2    0    0 +8.6419336770e+03 -3.5321227822e+03 +1.5065493758e+03 9.4570065411e+03 7.9829010000e+01 0.0000e+00 1.0000e+00
       22  1    1    2    0    0 -3.1877790892e+01 +1.1114027307e+01 -1.0265674288e+01 3.5285963551e+01 0.0000000000e+00 0.0000e+00 1.0000e+00
       22  1    1    2    0    0 +5.5328902589e+02 -6.1892444430e+00 +9.2856711372e+01 5.6106097865e+02 0.0000000000e+00 0.0000e+00 1.0000e+00
</event>
<event>
 6      1 +1.4834189e-01 1.00002700e+04 7.81653100e-03 6.93870900e-02
  1000022 -1    0    0    0    0 +0.0000000000e+00 +0.0000000000e+00 +4.4721471353e+01 1.0000100000e+04 1.0000000000e+04 0.0000e+00 1.0000e+00
  1000022 -1    0    0    0    0 -0.0000000000e+00 -0.0000000000e+00 -4.4721471353e+01 1.0000100000e+04 1.0000000000e+04 0.0000e+00 1.0000e+00
      -24  1    1    2    0    0 -6.1487063480e+03 +6.5551264528e+03 -4.3467760999e+03 9.9838423315e+03 7.9829010000e+01 0.0000e+00 -1.0000e+00
       24  1    1    2    0    0 +6.0986623141e+03 -6.5145482925e+03 +4.3157246498e+03 9.9128640362e+03 7.9829010000e+01 0.0000e+00 -1.0000e+00
       22  1    1    2    0    0 +5.9690563750e+01 -5.1850091960e+01 +3.7266630177e+01 8.7408221363e+01 0.0000000000e+00 0.0000e+00 1.0000e+00
       22  1    1    2    0    0 -9.6465298978e+00 +1.1271931665e+01 -6.2151800503e+00 1.6085410955e+01 0.0000000000e+00 0.0000e+00 -1.0000e+00
</event>
<event>
 6      1 +1.4834189e-01 1.00083300e+04 7.81653100e-03 6.93822200e-02
  1000022 -1    0    0    0    0 +0.0000000000e+00 +0.0000000000e+00 +4.4721471353e+01 1.0000100000e+04 1.0000000000e+04 0.0000e+00 1.0000e+00
  1000022 -1    0    0    0    0 -0.0000000000e+00 -0.0000000000e+00 -4.4721471353e+01 1.0000100000e+04 1.0000000000e+04 0.0000e+00 1.0000e+00
      -24  1    1    2    0    0 -2.3603508476e+03 -4.3569958416e+03 -8.6761937673e+03 9.9918656839e+03 7.9829010000e+01 0.0000e+00 -1.0000e+00
       24  1    1    2    0    0 +2.1837456872e+03 +4.1757434678e+03 +8.2200949032e+03 9.4753317422e+03 7.9829010000e+01 0.0000e+00 -1.0000e+00
       22  1    1    2    0    0 +5.3877021459e+01 +1.2741388944e+02 +2.7356360851e+02 3.0655192148e+02 0.0000000000e+00 0.0000e+00 -1.0000e+00
       22  1    1    2    0    0 +1.2272813891e+02 +5.3838484355e+01 +1.8253525553e+02 2.2645065244e+02 0.0000000000e+00 0.0000e+00 1.0000e+00
</event>
<event>
 6      1 +1.4834189e-01 1.14620200e+04 7.81653100e-03 6.85731000e-02
  1000022 -1    0    0    0    0 +0.0000000000e+00 +0.0000000000e+00 +4.4721471353e+01 1.0000100000e+04 1.0000000000e+04 0.0000e+00 -1.0000e+00
  1000022 -1    0    0    0    0 -0.0000000000e+00 -0.0000000000e+00 -4.4721471353e+01 1.0000100000e+04 1.0000000000e+04 0.0000e+00 -1.0000e+00
      -24  1    1    2    0    0 -3.5665407174e+03 +5.9445683089e+03 +1.0374202289e+03 7.0100441133e+03 7.9829010000e+01 0.0000e+00 -1.0000e+00
       24  1    1    2    0    0 +2.5602584316e+03 -7.5595510349e+03 +2.9701893932e+03 8.5164624574e+03 7.9829010000e+01 0.0000e+00 -1.0000e+00
       22  1    1    2    0    0 +9.9867588395e+02 +1.6308469609e+03 -4.0203363881e+03 4.4519793356e+03 0.0000000000e+00 0.0000e+00 -1.0000e+00
       22  1    1    2    0    0 +7.6064018102e+00 -1.5864234874e+01 +1.2726765985e+01 2.1714093789e+01 0.0000000000e+00 0.0000e+00 1.0000e+00
</event>
<event>
 6      1 +1.4834189e-01 6.33767100e+03 7.81653100e-03 7.22566400e-02
  1000022 -1    0    0    0    0 +0.0000000000e+00 +0.0000000000e+00 +4.4721471353e+01 1.0000100000e+04 1.0000000000e+04 0.0000e+00 1.0000e+00
  1000022 -1    0    0    0    0 -0.0000000000e+00 -0.0000000000e+00 -4.4721471353e+01 1.0000100000e+04 1.0000000000e+04 0.0000e+00 1.0000e+00
      -24  1    1    2    0    0 -2.2583849846e+03 -3.8365007606e+03 +4.0499977399e+03 6.0189613048e+03 7.9829010000e+01 0.0000e+00 -1.0000e+00
       24  1    1    2    0    0 +2.5952490394e+03 -2.1152707064e+03 -6.3856874535e+03 7.2106216558e+03 7.9829010000e+01 0.0000e+00 -1.0000e+00
       22  1    1    2    0    0 -3.9149906799e+02 +6.1110119578e+03 +2.4174650926e+03 6.5834547270e+03 0.0000000000e+00 0.0000e+00 -1.0000e+00
       22  1    1    2    0    0 +5.4635013154e+01 -1.5924049079e+02 -8.1775378973e+01 1.8716231238e+02 0.0000000000e+00 0.0000e+00 -1.0000e+00
</event>
<event>
 6      1 +1.4834189e-01 1.00369900e+04 7.81653100e-03 6.93649700e-02
  1000022 -1    0    0    0    0 +0.0000000000e+00 +0.0000000000e+00 +4.4721471353e+01 1.0000100000e+04 1.0000000000e+04 0.0000e+00 -1.0000e+00
  1000022 -1    0    0    0    0 -0.0000000000e+00 -0.0000000000e+00 -4.4721471353e+01 1.0000100000e+04 1.0000000000e+04 0.0000e+00 -1.0000e+00
      -24  1    1    2    0    0 +5.3838515354e+03 +2.1348322542e+03 -8.1065322742e+03 9.9632125488e+03 7.9829010000e+01 0.0000e+00 1.0000e+00
       24  1    1    2    0    0 -5.0478100261e+03 -1.8788295068e+03 +7.4720448817e+03 9.2113090145e+03 7.9829010000e+01 0.0000e+00 1.0000e+00
       22  1    1    2    0    0 +2.6984085144e+01 -1.2326947257e+02 +7.8777461987e+01 1.4875951142e+02 0.0000000000e+00 0.0000e+00 1.0000e+00
       22  1    1    2    0    0 -3.6302559448e+02 -1.3273327479e+02 +5.5570993052e+02 6.7691892525e+02 0.0000000000e+00 0.0000e+00 -1.0000e+00
</event>
<event>
 6      1 +1.4834189e-01 6.83345500e+03 7.81653100e-03 7.17662900e-02
  1000022 -1    0    0    0    0 +0.0000000000e+00 +0.0000000000e+00 +4.4721471353e+01 1.0000100000e+04 1.0000000000e+04 0.0000e+00 1.0000e+00
  1000022 -1    0    0    0    0 -0.0000000000e+00 -0.0000000000e+00 -4.4721471353e+01 1.0000100000e+04 1.0000000000e+04 0.0000e+00 1.0000e+00
      -24  1    1    2    0    0 +9.3459800087e+02 +3.0026517401e+03 -3.0540243198e+03 4.3843845762e+03 7.9829010000e+01 0.0000e+00 1.0000e+00
       24  1    1    2    0    0 -6.3675018987e+03 -1.2100311763e+03 -3.0282504199e+03 7.1544342302e+03 7.9829010000e+01 0.0000e+00 1.0000e+00
       22  1    1    2    0    0 +4.3006371980e+03 -1.6957879141e+03 +5.4990400563e+03 7.1840530691e+03 0.0000000000e+00 0.0000e+00 1.0000e+00
       22  1    1    2    0    0 +1.1322666999e+03 -9.6832649716e+01 +5.8323468340e+02 1.2773281245e+03 0.0000000000e+00 0.0000e+00 1.0000e+00
</event>
<event>
 6      1 +1.4834189e-01 1.03097000e+04 7.81653100e-03 6.92035800e-02
  1000022 -1    0    0    0    0 +0.0000000000e+00 +0.0000000000e+00 +4.4721471353e+01 1.0000100000e+04 1.0000000000e+04 0.0000e+00 1.0000e+00
  1000022 -1    0    0    0    0 -0.0000000000e+00 -0.0000000000e+00 -4.4721471353e+01 1.0000100000e+04 1.0000000000e+04 0.0000e+00 1.0000e+00
      -24  1    1    2    0    0 -2.0125433782e+02 +1.5500897696e+02 +8.4532477895e+01 2.7937340977e+02 7.9829010000e+01 0.0000e+00 -1.0000e+00
       24  1    1    2    0    0 +6.2827072580e+03 -3.2660108033e+03 -6.5386167618e+03 9.6384188997e+03 7.9829010000e+01 0.0000e+00 1.0000e+00
       22  1    1    2    0    0 -6.2655560083e+03 +3.5980701136e+03 +6.0304288461e+03 9.4111302565e+03 0.0000000000e+00 0.0000e+00 1.0000e+00
       22  1    1    2    0    0 +1.8410308819e+02 -4.8706828723e+02 +4.2365543780e+02 6.7127743406e+02 0.0000000000e+00 0.0000e+00 1.0000e+00
</event>
<event>
 6      1 +1.4834189e-01 1.01697700e+04 7.81653100e-03 6.92857600e-02
  1000022 -1    0    0    0    0 +0.0000000000e+00 +0.0000000000e+00 +4.4721471353e+01 1.0000100000e+04 1.0000000000e+04 0.0000e+00 -1.0000e+00
  1000022 -1    0    0    0    0 -0.0000000000e+00 -0.0000000000e+00 -4.4721471353e+01 1.0000100000e+04 1.0000000000e+04 0.0000e+00 -1.0000e+00
      -24  1    1    2    0    0 -3.7304946403e+03 +8.5462998299e+03 +3.1105044685e+03 9.8304344646e+03 7.9829010000e+01 0.0000e+00 -1.0000e+00
       24  1    1    2    0    0 +3.1137969478e+02 -3.9511116951e+02 -9.1765130152e+02 1.0495364370e+03 7.9829010000e+01 0.0000e+00 -1.0000e+00
       22  1    1    2    0    0 +5.6557560758e+00 -1.2987889906e+01 -3.1198180508e+01 3.4263673592e+01 0.0000000000e+00 0.0000e+00 1.0000e+00
       22  1    1    2    0    0 +3.4134591894e+03 -8.1382007705e+03 -2.1616549865e+03 9.0859654248e+03 0.0000000000e+00 0.0000e+00 -1.0000e+00
</event>
<event>
 6      1 +1.4834189e-01 1.00032000e+04 7.81653100e-03 6.93853200e-02
  1000022 -1    0    0    0    0 +0.0000000000e+00 +0.0000000000e+00 +4.4721471353e+01 1.0000100000e+04 1.0000000000e+04 0.0000e+00 1.0000e+00
  1000022 -1    0    0    0    0 -0.0000000000e+00 -0.0000000000e+00 -4.4721471353e+01 1.0000100000e+04 1.0000000000e+04 0.0000e+00 1.0000e+00
      -24  1    1    2    0    0 -3.1011241626e+03 +9.3543594342e+03 +1.6770683091e+03 9.9969966630e+03 7.9829010000e+01 0.0000e+00 -1.0000e+00
       24  1    1    2    0    0 +2.5364428677e+03 -7.8337771505e+03 -1.3113044028e+03 8.3383151039e+03 7.9829010000e+01 0.0000e+00 -1.0000e+00
       22  1    1    2    0    0 +5.5760545141e+02 -1.5066952195e+03 -3.7023313447e+02 1.6486742849e+03 0.0000000000e+00 0.0000e+00 1.0000e+00
       22  1    1    2    0    0 +7.0758435782e+00 -1.3887064197e+01 +4.4692281584e+00 1.6213948153e+01 0.0000000000e+00 0.0000e+00 1.0000e+00
</event>
<event>
 6      1 +1.4834189e-01 1.01713000e+04 7.81653100e-03 6.92848500e-02
  1000022 -1    0    0    0    0 +0.0000000000e+00 +0.0000000000e+00 +4.4721471353e+01 1.0000100000e+04 1.0000000000e+04 0.0000e+00 1.0000e+00
  1000022 -1    0    0    0    0 -0.0000000000e+00 -0.0000000000e+00 -4.4721471353e+01 1.0000100000e+04 1.0000000000e+04 0.0000e+00 1.0000e+00
      -24  1    1    2    0    0 -1.3760176831e+03 +1.3813622622e+03 +3.4732487071e+03 3.9838945287e+03 7.9829010000e+01 0.0000e+00 1.0000e+00
       24  1    1    2    0    0 +2.5842800134e+03 -4.5928371927e+03 -8.2962784586e+03 9.8288995111e+03 7.9829010000e+01 0.0000e+00 1.0000e+00
       22  1    1    2    0    0 +3.4857803873e+02 +8.3066491157e+02 +1.9311769826e+03 2.1309517550e+03 0.0000000000e+00 0.0000e+00 1.0000e+00
       22  1    1    2    0    0 -1.5568403690e+03 +2.3808100189e+03 +2.8918527689e+03 4.0564542051e+03 0.0000000000e+00 0.0000e+00 1.0000e+00
</event>
<event>
 6      1 +1.4834189e-01 1.00301700e+04 7.81653100e-03 6.93690700e-02
  1000022 -1    0    0    0    0 +0.0000000000e+00 +0.0000000000e+00 +4.4721471353e+01 1.0000100000e+04 1.0000000000e+04 0.0000e+00 -1.0000e+00
  1000022 -1    0    0    0    0 -0.0000000000e+00 -0.0000000000e+00 -4.4721471353e+01 1.0000100000e+04 1.0000000000e+04 0.0000e+00 -1.0000e+00
      -24  1    1    2    0    0 +9.9719966927e+01 -4.3555921992e+01 +3.8616688664e+02 4.0907056276e+02 7.9829010000e+01 0.0000e+00 1.0000e+00
       24  1    1    2    0    0 -2.0079195754e+03 +3.8652104217e+03 -5.2100473089e+03 6.7913590876e+03 7.9829010000e+01 0.0000e+00 1.0000e+00
       22  1    1    2    0    0 -9.1496771817e+02 +1.8212125556e+03 -2.4392619671e+03 3.1786758316e+03 0.0000000000e+00 0.0000e+00 -1.0000e+00
       22  1    1    2    0    0 +2.8231673267e+03 -5.6428670553e+03 +7.2631423893e+03 9.6210945181e+03 0.0000000000e+00 0.0000e+00 1.0000e+00
</event>
<event>
 6      1 +1.4834189e-01 1.00078700e+04 7.81653100e-03 6.93825000e-02
  1000022 -1    0    0    0    0 +0.0000000000e+00 +0.0000000000e+00 +4.4721471353e+01 1.0000100000e+04 1.0000000000e+04 0.0000e+00 -1.0000e+00
  1000022 -1    0    0    0    0 -0.0000000000e+00 -0.0000000000e+00 -4.4721471353e+01 1.0000100000e+04 1.0000000000e+04 0.0000e+00 -1.0000e+00
      -24  1    1    2    0    0 -6.6354081628e+03 -1.5969871967e+03 -5.2983054510e+03 8.6404527032e+03 7.9829010000e+01 0.0000e+00 -1.0000e+00
       24  1    1    2    0    0 +6.9094893678e+03 +1.7826180250e+03 +5.4702177271e+03 8.9915752235e+03 7.9829010000e+01 0.0000e+00 -1.0000e+00
       22  1    1    2    0    0 +8.7919286646e+02 -4.4481404548e+00 +5.0976985230e+02 1.0162997514e+03 0.0000000000e+00 0.0000e+00 -1.0000e+00
       22  1    1    2    0    0 -1.1532740715e+03 -1.8118268783e+02 -6.8168212843e+02 1.3518723219e+03 0.0000000000e+00 0.0000e+00 1.0000e+00
</event>
<event>
 6      1 +1.4834189e-01 1.00076500e+04 7.81653100e-03 6.93826400e-02
  1000022 -1    0    0    0    0 +0.0000000000e+00 +0.0000000000e+00 +4.4721471353e+01 1.0000100000e+04 1.0000000000e+04 0.0000e+00 -1.0000e+00
  1000022 -1    0    0    0    0 -0.0000000000e+00 -0.0000000000e+00 -4.4721471353e+01 1.0000100000e+04 1.0000000000e+04 0.0000e+00 -1.0000e+00
      -24  1    1    2    0    0 +1.6146074364e+03 +2.9377590865e+02 -1.8786825211e+03 2.4958129225e+03 7.9829010000e+01 0.0000e+00 1.0000e+00
       24  1    1    2    0    0 -6.0115766186e+03 -4.6252767953e+02 +7.9240705566e+03 9.9574219632e+03 7.9829010000e+01 0.0000e+00 1.0000e+00
       22  1    1    2    0    0 +4.4221000386e+03 +1.6998184438e+02 -6.0699071852e+03 7.5118330530e+03 0.0000000000e+00 0.0000e+00 1.0000e+00
       22  1    1    2    0    0 -2.5130856437e+01 -1.2300735027e+00 +2.4519149709e+01 3.5132061262e+01 0.0000000000e+00 0.0000e+00 1.0000e+00
</event>
<event>
 6      1 +1.4834189e-01 1.00034300e+04 7.81653100e-03 6.93851800e-02
  1000022 -1    0    0    0    0 +0.0000000000e+00 +0.0000000000e+00 +4.4721471353e+01 1.0000100000e+04 1.0000000000e+04 0.0000e+00 -1.0000e+00
  1000022 -1    0    0    0    0 -0.0000000000e+00 -0.0000000000e+00 -4.4721471353e+01 1.0000100000e+04 1.0000000000e+04 0.0000e+00 -1.0000e+00
      -24  1    1    2    0    0 +3.2386818686e+03 +2.3797615290e+03 -1.9352040892e+03 4.4613577214e+03 7.9829010000e+01 0.0000e+00 -1.0000e+00
       24  1    1    2    0    0 -7.2553508724e+03 -5.5221254041e+03 +4.0981665816e+03 9.9967658401e+03 7.9829010000e+01 0.0000e+00 -1.0000e+00
       22  1    1    2    0    0 +3.9980532194e+03 +3.1137985309e+03 -2.1395328531e+03 5.5007064697e+03 0.0000000000e+00 0.0000e+00 -1.0000e+00
       22  1    1    2    0    0 +1.8615784451e+01 +2.8565344232e+01 -2.3429639242e+01 4.1369968779e+01 0.0000000000e+00 0.0000e+00 -1.0000e+00
</event>
<event>
 6      1 +1.4834189e-01 1.00001000e+04 7.81653100e-03 6.93871900e-02
  1000022 -1    0    0    0    0 +0.0000000000e+00 +0.0000000000e+00 +4.4721471353e+01 1.0000100000e+04 1.0000000000e+04 0.0000e+00 -1.0000e+00
  1000022 -1    0    0    0    0 -0.0000000000e+00 -0.0000000000e+00 -4.4721471353e+01 1.0000100000e+04 1.0000000000e+04 0.0000e+00 -1.0000e+00
      -24  1    1    2    0    0 -4.4359562124e+03 +5.3146141256e+03 -5.9075379553e+03 9.1010003948e+03 7.9829010000e+01 0.0000e+00 -1.0000e+00
       24  1    1    2    0    0 +4.7274169961e+03 -5.7110385353e+03 +6.2978742733e+03 9.7280021401e+03 7.9829010000e+01 0.0000e+00 -1.0000e+00
       22  1    1    2    0    0 +1.2658240288e+02 -1.5032553661e+02 +1.8818781557e+02 2.7209469970e+02 0.0000000000e+00 0.0000e+00 1.0000e+00
       22  1    1    2    0    0 -4.1804318652e+02 +5.4674994629e+02 -5.7852413357e+02 8.9910276537e+02 0.0000000000e+00 0.0000e+00 1.0000e+00
</event>
<event>
 6      1 +1.4834189e-01 1.00145600e+04 7.81653100e-03 6.93784700e-02
  1000022 -1    0    0    0    0 +0.0000000000e+00 +0.0000000000e+00 +4.4721471353e+01 1.0000100000e+04 1.0000000000e+04 0.0000e+00 -1.0000e+00
  1000022 -1    0    0    0    0 -0.0000000000e+00 -0.0000000000e+00 -4.4721471353e+01 1.0000100000e+04 1.0000000000e+04 0.0000e+00 -1.0000e+00
      -24  1    1    2    0    0 +8.5829136404e+03 -3.1606262352e+03 -4.0063302670e+03 9.9856406723e+03 7.9829010000e+01 0.0000e+00 1.0000e+00
       24  1    1    2    0    0 -8.5244748801e+03 +3.0618391867e+03 +3.9738712128e+03 9.8913879852e+03 7.9829010000e+01 0.0000e+00 1.0000e+00
       22  1    1    2    0    0 +1.3859365101e+00 +1.4749354391e+01 -6.5813400369e-01 1.4828938442e+01 0.0000000000e+00 0.0000e+00 -1.0000e+00
       22  1    1    2    0    0 -5.9824696740e+01 +8.4037694101e+01 +3.3117188160e+01 1.0834240408e+02 0.0000000000e+00 0.0000e+00 1.0000e+00
</event>
<event>
 6      1 +1.4834189e-01 1.00314700e+04 7.81653100e-03 6.93682800e-02
  1000022 -1    0    0    0    0 +0.0000000000e+00 +0.0000000000e+00 +4.4721471353e+01 1.0000100000e+04 1.0000000000e+04 0.0000e+00 -1.0000e+00
  1000022 -1    0    0    0    0 -0.0000000000e+00 -0.0000000000e+00 -4.4721471353e+01 1.0000100000e+04 1.0000000000e+04 0.0000e+00 -1.0000e+00
      -24  1    1    2    0    0 -2.7241275268e+03 -2.9662202153e+02 -1.4265506702e+03 3.0903519042e+03 7.9829010000e+01 0.0000e+00 -1.0000e+00
       24  1    1    2    0    0 +8.3498645802e+03 +1.1632818552e+03 +5.3193673600e+03 9.9687263461e+03 7.9829010000e+01 0.0000e+00 -1.0000e+00
       22  1    1    2    0    0 -5.6033068999e+03 -7.9363752280e+02 -3.7824457321e+03 6.8068938914e+03 0.0000000000e+00 0.0000e+00 -1.0000e+00
       22  1    1    2    0    0 -2.2430153442e+01 -7.3022310895e+01 -1.1037095763e+02 1.3422785836e+02 0.0000000000e+00 0.0000e+00 1.0000e+00
</event>
<event>
 6      1 +1.4834189e-01 7.18519200e+03 7.81653100e-03 7.14432600e-02
  1000022 -1    0    0    0    0 +0.0000000000e+00 +0.0000000000e+00 +4.4721471353e+01 1.0000100000e+04 1.0000000000e+04 0.0000e+00 -1.0000e+00
  1000022 -1    0    0    0    0 -0.0000000000e+00 -0.0000000000e+00 -4.4721471353e+01 1.0000100000e+04 1.0000000000e+04 0.0000e+00 -1.0000e+00
      -24  1    1    2    0    0 +1.4455965741e+02 -4.2534664068e+03 -2.3159427784e+03 4.8459093668e+03 7.9829010000e+01 0.0000e+00 -1.0000e+00
       24  1    1    2    0    0 +6.0729822510e+03 +1.5067993879e+03 +4.4273799450e+03 7.6654826113e+03 7.9829010000e+01 0.0000e+00 -1.0000e+00
       22  1    1    2    0    0 -6.4007011683e+03 +2.7391072436e+03 -2.1762632729e+03 7.2943680858e+03 0.0000000000e+00 0.0000e+00 -1.0000e+00
       22  1    1    2    0    0 +1.8315925994e+02 +7.5597752908e+00 +6.4826106236e+01 1.9443993611e+02 0.0000000000e+00 0.0000e+00 1.0000e+00
</event>
<event>
 6      1 +1.4834189e-01 1.05825800e+04 7.81653100e-03 6.90470400e-02
  1000022 -1    0    0    0    0 +0.0000000000e+00 +0.0000000000e+00 +4.4721471353e+01 1.0000100000e+04 1.0000000000e+04 0.0000e+00 -1.0000e+00
  1000022 -1    0    0    0    0 -0.0000000000e+00 -0.0000000000e+00 -4.4721471353e+01 1.0000100000e+04 1.0000000000e+04 0.0000e+00 -1.0000e+00
      -24  1    1    2    0    0 -7.5362327606e+03 -2.2027862145e+03 +4.6578715196e+03 9.1295789110e+03 7.9829010000e+01 0.0000e+00 -1.0000e+00
       24  1    1    2    0    0 +6.6441056838e+03 +1.6701919974e+03 -5.9068643882e+03 9.0460544558e+03 7.9829010000e+01 0.0000e+00 -1.0000e+00
       22  1    1    2    0    0 -1.6024782192e+02 +7.4344732353e+01 +2.2750981115e+02 2.8804030591e+02 0.0000000000e+00 0.0000e+00 -1.0000e+00
       22  1    1    2    0    0 +1.0523748987e+03 +4.5824948475e+02 +1.0214830574e+03 1.5365263273e+03 0.0000000000e+00 0.0000e+00 1.0000e+00
</event>
<event>
 6      1 +1.4834189e-01 1.00411700e+04 7.81653100e-03 6.93624500e-02
  1000022 -1    0    0    0    0 +0.0000000000e+00 +0.0000000000e+00 +4.4721471353e+01 1.0000100000e+04 1.0000000000e+04 0.0000e+00 1.0000e+00
  1000022 -1    0    0    0    0 -0.0000000000e+00 -0.0000000000e+00 -4.4721471353e+01 1.0000100000e+04 1.0000000000e+04 0.0000e+00 1.0000e+00
      -24  1    1    2    0    0 -1.5341248716e+02 +2.7765201859e+03 +6.1522481832e+03 6.7519723128e+03 7.9829010000e+01 0.0000e+00 -1.0000e+00
       24  1    1    2    0    0 -5.9935806348e+02 -4.2965988084e+03 -8.7418105299e+03 9.7593860165e+03 7.9829010000e+01 0.0000e+00 -1.0000e+00
       22  1    1    2    0    0 -1.1359433362e+01 -6.9473308739e+01 -1.8681655014e+02 1.9963967732e+02 0.0000000000e+00 0.0000e+00 1.0000e+00
       22  1    1    2    0    0 +7.6412998400e+02 +1.5895519312e+03 +2.7763788968e+03 3.2892019934e+03 0.0000000000e+00 0.0000e+00 -1.0000e+00
</event>
<event>
 6      1 +1.4834189e-01 1.00026200e+04 7.81653100e-03 6.93856700e-02
  1000022 -1    0    0    0    0 +0.0000000000e+00 +0.0000000000e+00 +4.4721471353e+01 1.0000100000e+04 1.0000000000e+04 0.0000e+00 -1.0000e+00
  1000022 -1    0    0    0    0 -0.0000000000e+00 -0.0000000000e+00 -4.4721471353e+01 1.0000100000e+04 1.0000000000e+04 0.0000e+00 -1.0000e+00
      -24  1    1    2    0    0 -9.5518409693e+03 +1.1949129966e+02 -2.4505740647e+03 9.8622325054e+03 7.9829010000e+01 0.0000e+00 -1.0000e+00
       24  1    1    2    0    0 +9.4356065358e+03 -1.0797991666e+02 +2.4511531557e+03 9.7497104995e+03 7.9829010000e+01 0.0000e+00 -1.0000e+00
       22  1    1    2    0    0 -1.2102241463e+02 +1.4741351230e+00 -7.1138758471e+01 1.4038988879e+02 0.0000000000e+00 0.0000e+00 1.0000e+00
       22  1    1    2    0    0 +2.3725684822e+02 -1.2985518130e+01 +7.0559667451e+01 2.4786710629e+02 0.0000000000e+00 0.0000e+00 -1.0000e+00
</event>
<event>
 6      1 +1.4834189e-01 1.00001700e+04 7.81653100e-03 6.93871500e-02
  1000022 -1    0    0    0    0 +0.0000000000e+00 +0.0000000000e+00 +4.4721471353e+01 1.0000100000e+04 1.0000000000e+04 0.0000e+00 -1.0000e+00
  1000022 -1    0    0    0    0 -0.0000000000e+00 -0.0000000000e+00 -4.4721471353e+01 1.0000100000e+04 1.0000000000e+04 0.0000e+00 -1.0000e+00
      -24  1    1    2    0    0 -1.5318956610e+03 -6.5957385115e+03 +7.1330104604e+03 9.8354807573e+03 7.9829010000e+01 0.0000e+00 -1.0000e+00
       24  1    1    2    0    0 +1.4830237133e+03 +6.4162537627e+03 -6.9474871341e+03 9.5729630643e+03 7.9829010000e+01 0.0000e+00 -1.0000e+00
       22  1    1    2    0    0 +7.4183267252e+01 +2.9369749937e+02 -3.0124096327e+02 4.2720896085e+02 0.0000000000e+00 0.0000e+00 1.0000e+00
       22  1    1    2    0    0 -2.5311319567e+01 -1.1421275056e+02 +1.1571763692e+02 1.6454721749e+02 0.0000000000e+00 0.0000e+00 -1.0000e+00
</event>
<event>
 6      1 +1.4834189e-01 1.00227500e+04 7.81653100e-03 6.93735400e-02
  1000022 -1    0    0    0    0 +0.0000000000e+00 +0.0000000000e+00 +4.4721471353e+01 1.0000100000e+04 1.0000000000e+04 0.0000e+00 1.0000e+00
  1000022 -1    0    0    0    0 -0.0000000000e+00 -0.0000000000e+00 -4.4721471353e+01 1.0000100000e+04 1.0000000000e+04 0.0000e+00 1.0000e+00
      -24  1    1    2    0    0 +5.6485848352e+03 -8.1072657499e+03 -1.2669449962e+03 9.9622181704e+03 7.9829010000e+01 0.0000e+00 1.0000e+00
       24  1    1    2    0    0 -5.5637526883e+03 +7.8488346590e+03 +1.0846005812e+03 9.6820597278e+03 7.9829010000e+01 0.0000e+00 1.0000e+00
       22  1    1    2    0    0 -9.3648832594e+01 +2.7066980392e+02 +1.8448673932e+02 3.4068695834e+02 0.0000000000e+00 0.0000e+00 1.0000e+00
       22  1    1    2    0    0 +8.8166856982e+00 -1.2238713022e+01 -2.1423243669e+00 1.5235143479e+01 0.0000000000e+00 0.0000e+00 -1.0000e+00
</event>
<event>
 6      1 +1.4834189e-01 1.00001100e+04 7.81653100e-03 6.93871900e-02
  1000022 -1    0    0    0    0 +0.0000000000e+00 +0.0000000000e+00 +4.4721471353e+01 1.0000100000e+04 1.0000000000e+04 0.0000e+00 -1.0000e+00
  1000022 -1    0    0    0    0 -0.0000000000e+00 -0.0000000000e+00 -4.4721471353e+01 1.0000100000e+04 1.0000000000e+04 0.0000e+00 -1.0000e+00
      -24  1    1    2    0    0 +8.4321303225e+03 -1.0522188484e+03 +5.2450657208e+03 9.9862442073e+03 7.9829010000e+01 0.0000e+00 1.0000e+00
       24  1    1    2    0    0 -8.4115915267e+03 +1.0509339273e+03 -5.2308249016e+03 9.9612868623e+03 7.9829010000e+01 0.0000e+00 1.0000e+00
       22  1    1    2    0    0 +1.1857882553e+01 -1.6962606071e+00 +6.9440946425e+00 1.3845834359e+01 0.0000000000e+00 0.0000e+00 -1.0000e+00
       22  1    1    2    0    0 -3.2396678373e+01 +2.9811817120e+00 -2.1184913816e+01 3.8823096056e+01 0.0000000000e+00 0.0000e+00 1.0000e+00
</event>
<event>
 6      1 +1.4834189e-01 1.00098000e+04 7.81653100e-03 6.93813400e-02
  1000022 -1    0    0    0    0 +0.0000000000e+00 +0.0000000000e+00 +4.4721471353e+01 1.0000100000e+04 1.0000000000e+04 0.0000e+00 -1.0000e+00
  1000022 -1    0    0    0    0 -0.0000000000e+00 -0.0000000000e+00 -4.4721471353e+01 1.0000100000e+04 1.0000000000e+04 0.0000e+00 -1.0000e+00
      -24  1    1    2    0    0 -6.1667185769e+03 +4.1340247751e+03 -6.6845416315e+03 9.9903978070e+03 7.9829010000e+01 0.0000e+00 1.0000e+00
       24  1    1    2    0    0 +5.9613962300e+03 -4.1019703934e+03 +6.5548923083e+03 9.7640868474e+03 7.9829010000e+01 0.0000e+00 1.0000e+00
       22  1    1    2    0    0 +1.9610503293e+02 -2.6766201809e+01 +1.2070841627e+02 2.3182781381e+02 0.0000000000e+00 0.0000e+00 1.0000e+00
       22  1    1    2    0    0 +9.2173139399e+00 -5.2881798640e+00 +8.9409068885e+00 1.3887531765e+01 0.0000000000e+00 0.0000e+00 1.0000e+00
</event>
<event>
 6      1 +1.4834189e-01 1.00015800e+04 7.81653100e-03 6.93863000e-02
  1000022 -1    0    0    0    0 +0.0000000000e+00 +0.0000000000e+00 +4.4721471353e+01 1.0000100000e+04 1.0000000000e+04 0.0000e+00 -1.0000e+00
  1000022 -1    0    0    0    0 -0.0000000000e+00 -0.0000000000e+00 -4.4721471353e+01 1.0000100000e+04 1.0000000000e+04 0.0000e+00 -1.0000e+00
      -24  1    1    2    0    0 -3.2998148532e+03 -4.6371961018e+02 +9.2941653917e+03 9.8737883784e+03 7.9829010000e+01 0.0000e+00 -1.0000e+00
       24  1    1    2    0    0 +3.3291809428e+03 +4.6649306884e+02 -9.3986834090e+03 9.9821182134e+03 7.9829010000e+01 0.0000e+00 -1.0000e+00
       22  1    1    2    0    0 -4.4367025634e+01 -5.8094406044e+00 +1.1653767961e+02 1.2483274143e+02 0.0000000000e+00 0.0000e+00 1.0000e+00
       22  1    1    2    0    0 +1.5000935994e+01 +3.0359819486e+00 -1.2019662359e+01 1.9460666749e+01 0.0000000000e+00 0.0000e+00 1.0000e+00
</event>
<event>
 6      1 +1.4834189e-01 1.00030100e+04 7.81653100e-03 6.93854400e-02
  1000022 -1    0    0    0    0 +0.0000000000e+00 +0.0000000000e+00 +4.4721471353e+01 1.0000100000e+04 1.0000000000e+04 0.0000e+00 1.0000e+00
  1000022 -1    0    0    0    0 -0.0000000000e+00 -0.0000000000e+00 -4.4721471353e+01 1.0000100000e+04 1.0000000000e+04 0.0000e+00 1.0000e+00
      -24  1    1    2    0    0 -1.7855374063e+03 +8.5703898851e+03 +4.2756064754e+02 8.7652100597e+03 7.9829010000e+01 0.0000e+00 1.0000e+00
       24  1    1    2    0    0 +8.5356507627e+01 -6.7250014714e+02 -2.7997368557e+01 6.8315350016e+02 7.9829010000e+01 0.0000e+00 0.0000e+00
       22  1    1    2    0    0 +1.9660409918e+03 -9.1007713080e+03 -4.1272012236e+02 9.3198547994e+03 0.0000000000e+00 0.0000e+00 1.0000e+00
       22  1    1    2    0    0 -2.6586009319e+02 +1.2028815701e+03 +1.3156843378e+01 1.2319816408e+03 0.0000000000e+00 0.0000e+00 1.0000e+00
</event>
<event>
 6      1 +1.4834189e-01 1.06709500e+04 7.81653100e-03 6.89973600e-02
  1000022 -1    0    0    0    0 +0.0000000000e+00 +0.0000000000e+00 +4.4721471353e+01 1.0000100000e+04 1.0000000000e+04 0.0000e+00 1.0000e+00
  1000022 -1    0    0    0    0 -0.0000000000e+00 -0.0000000000e+00 -4.4721471353e+01 1.0000100000e+04 1.0000000000e+04 0.0000e+00 1.0000e+00
      -24  1    1    2    0    0 -7.1108092050e+03 -4.7751790774e+03 +3.0865835247e+03 9.1049060015e+03 7.9829010000e+01 0.0000e+00 -1.0000e+00
       24  1    1    2    0    0 +3.4430152909e+03 +3.2458023641e+03 -2.0489592521e+03 5.1569558819e+03 7.9829010000e+01 0.0000e+00 0.0000e+00
       22  1    1    2    0    0 +9.0154736974e+02 -1.1364887851e+03 +5.8998702941e+02 1.5660393077e+03 0.0000000000e+00 0.0000e+00 1.0000e+00
       22  1    1    2    0    0 +2.7662465443e+03 +2.6658654984e+03 -1.6276113020e+03 4.1722988088e+03 0.0000000000e+00 0.0000e+00 -1.0000e+00
</event>
<event>
 6      1 +1.4834189e-01 1.01046800e+04 7.81653100e-03 6.93244300e-02
  1000022 -1    0    0    0    0 +0.0000000000e+00 +0.0000000000e+00 +4.4721471353e+01 1.0000100000e+04 1.0000000000e+04 0.0000e+00 1.0000e+00
  1000022 -1    0    0    0    0 -0.0000000000e+00 -0.0000000000e+00 -4.4721471353e+01 1.0000100000e+04 1.0000000000e+04 0.0000e+00 1.0000e+00
      -24  1    1    2    0    0 -3.0735562622e+03 -8.6057877030e+03 -3.7958554300e+03 9.8955152065e+03 7.9829010000e+01 0.0000e+00 1.0000e+00
       24  1    1    2    0    0 +2.5357172364e+03 +8.3966798780e+03 +3.4953621486e+03 9.4423526781e+03 7.9829010000e+01 0.0000e+00 1.0000e+00
       22  1    1    2    0    0 +5.2811591876e+02 +1.7803053750e+02 +2.8906930930e+02 6.2782351143e+02 0.0000000000e+00 0.0000e+00 -1.0000e+00
       22  1    1    2    0    0 +9.7231070672e+00 +3.1077287461e+01 +1.1423972106e+01 3.4508603937e+01 0.0000000000e+00 0.0000e+00 -1.0000e+00
</event>
<event>
 6      1 +1.4834189e-01 9.68967800e+03 7.81653100e-03 6.95781400e-02
  1000022 -1    0    0    0    0 +0.0000000000e+00 +0.0000000000e+00 +4.4721471353e+01 1.0000100000e+04 1.0000000000e+04 0.0000e+00 -1.0000e+00
  1000022 -1    0    0    0    0 -0.0000000000e+00 -0.0000000000e+00 -4.4721471353e+01 1.0000100000e+04 1.0000000000e+04 0.0000e+00 -1.0000e+00
      -24  1    1    2    0    0 +6.2819904838e+03 -4.7138842274e+02 +1.1610338716e+03 6.4062456873e+03 7.9829010000e+01 0.0000e+00 -1.0000e+00
       24  1    1    2    0    0 -1.7549132476e+02 -5.8050306461e+02 -6.5277380656e+01 6.1515430613e+02 7.9829010000e+01 0.0000e+00 1.0000e+00
       22  1    1    2    0    0 +3.3042666779e+03 -6.3738596903e+01 +5.7920897865e+02 3.3552531840e+03 0.0000000000e+00 0.0000e+00 1.0000e+00
       22  1    1    2    0    0 -9.4107658370e+03 +1.1156300842e+03 -1.6749654696e+03 9.6235468226e+03 0.0000000000e+00 0.0000e+00 -1.0000e+00
</event>
<event>
 6      1 +1.4834189e-01 1.00019600e+04 7.81653100e-03 6.93860700e-02
  1000022 -1    0    0    0    0 +0.0000000000e+00 +0.0000000000e+00 +4.4721471353e+01 1.0000100000e+04 1.0000000000e+04 0.0000e+00 1.0000e+00
  1000022 -1    0    0    0    0 -0.0000000000e+00 -0.0000000000e+00 -4.4721471353e+01 1.0000100000e+04 1.0000000000e+04 0.0000e+00 1.0000e+00
      -24  1    1    2    0    0 -7.0361604310e+03 +4.4403874206e+03 -5.4749007633e+03 9.9601960370e+03 7.9829010000e+01 0.0000e+00 -1.0000e+00
       24  1    1    2    0    0 +7.0723437904e+03 -4.4508332182e+03 +5.4891267186e+03 9.9982422369e+03 7.9829010000e+01 0.0000e+00 -1.0000e+00
       22  1    1    2    0    0 -1.5826478348e+01 +7.8428037569e+00 -1.1456138755e+01 2.1053030729e+01 0.0000000000e+00 0.0000e+00 -1.0000e+00
       22  1    1    2    0    0 -2.0356880988e+01 +2.6029938769e+00 -2.7698165207e+00 2.0708695377e+01 0.0000000000e+00 0.0000e+00 1.0000e+00
</event>
<event>
 6      1 +1.4834189e-01 1.00287800e+04 7.81653100e-03 6.93699000e-02
  1000022 -1    0    0    0    0 +0.0000000000e+00 +0.0000000000e+00 +4.4721471353e+01 1.0000100000e+04 1.0000000000e+04 0.0000e+00 -1.0000e+00
  1000022 -1    0    0    0    0 -0.0000000000e+00 -0.0000000000e+00 -4.4721471353e+01 1.0000100000e+04 1.0000000000e+04 0.0000e+00 -1.0000e+00
      -24  1    1    2    0    0 -2.6151580543e+03 -4.2091834025e+03 -5.9634428031e+02 4.9918208839e+03 7.9829010000e+01 0.0000e+00 1.0000e+00
       24  1    1    2    0    0 +5.8449034512e+03 +7.5671901446e+03 +2.1627416942e+03 9.8035242308e+03 7.9829010000e+01 0.0000e+00 1.0000e+00
       22  1    1    2    0    0 -2.7625947373e+00 +1.2788402108e+02 +1.0875000226e+02 1.6789436491e+02 0.0000000000e+00 0.0000e+00 1.0000e+00
       22  1    1    2    0    0 -3.2269828022e+03 -3.4858907631e+03 -1.6751474161e+03 5.0369605204e+03 0.0000000000e+00 0.0000e+00 1.0000e+00
</event>
<event>
 6      1 +1.4834189e-01 1.00218200e+04 7.81653100e-03 6.93741000e-02
  1000022 -1    0    0    0    0 +0.0000000000e+00 +0.0000000000e+00 +4.4721471353e+01 1.0000100000e+04 1.0000000000e+04 0.0000e+00 1.0000e+00
  1000022 -1    0    0    0    0 -0.0000000000e+00 -0.0000000000e+00 -4.4721471353e+01 1.0000100000e+04 1.0000000000e+04 0.0000e+00 1.0000e+00
      -24  1    1    2    0    0 +1.3147651749e+03 -1.6715460719e+03 -9.7487985525e+03 9.9783826156e+03 7.9829010000e+01 0.0000e+00 -1.0000e+00
       24  1    1    2    0    0 -1.0428471886e+03 +1.6466014703e+03 +8.1679122692e+03 8.3976181247e+03 7.9829010000e+01 0.0000e+00 -1.0000e+00
       22  1    1    2    0    0 -7.6538318711e+01 +1.2992092302e+02 +6.4283125900e+02 6.6027993156e+02 0.0000000000e+00 0.0000e+00 -1.0000e+00
       22  1    1    2    0    0 -1.9537966751e+02 -1.0497632144e+02 +9.3805502432e+02 9.6391932816e+02 0.0000000000e+00 0.0000e+00 1.0000e+00
</event>
<event>
 6      1 +1.4834189e-01 1.00054600e+04 7.81653100e-03 6.93839600e-02
  1000022 -1    0    0    0    0 +0.0000000000e+00 +0.0000000000e+00 +4.4721471353e+01 1.0000100000e+04 1.0000000000e+04 0.0000e+00 1.0000e+00
  1000022 -1    0    0    0    0 -0.0000000000e+00 -0.0000000000e+00 -4.4721471353e+01 1.0000100000e+04 1.0000000000e+04 0.0000e+00 1.0000e+00
      -24  1    1    2    0    0 +1.5617527715e+01 +5.0992933068e+03 +8.4098293762e+03 9.8353769091e+03 7.9829010000e+01 0.0000e+00 -1.0000e+00
       24  1    1    2    0    0 -3.5125435369e+01 -4.8755468265e+03 -8.0540671508e+03 9.4152302677e+03 7.9829010000e+01 0.0000e+00 -1.0000e+00
       22  1    1    2    0    0 +3.1788226791e+01 +1.3370292345e+02 +1.0020838455e+02 1.7008434213e+02 0.0000000000e+00 0.0000e+00 -1.0000e+00
       22  1    1    2    0    0 -1.2280319136e+01 -3.5744940376e+02 -4.5597060998e+02 5.7950848108e+02 0.0000000000e+00 0.0000e+00 1.0000e+00
</event>
<event>
 6      1 +1.4834189e-01 9.89957900e+03 7.81653100e-03 6.94482500e-02
  1000022 -1    0    0    0    0 +0.0000000000e+00 +0.0000000000e+00 +4.4721471353e+01 1.0000100000e+04 1.0000000000e+04 0.0000e+00 -1.0000e+00
  1000022 -1    0    0    0    0 -0.0000000000e+00 -0.0000000000e+00 -4.4721471353e+01 1.0000100000e+04 1.0000000000e+04 0.0000e+00 -1.0000e+00
      -24  1    1    2    0    0 -1.6884786950e+02 +7.1328606064e+01 +2.1284928303e+01 2.0105494793e+02 7.9829010000e+01 0.0000e+00 -1.0000e+00
       24  1    1    2    0    0 +2.0188177279e+03 +4.9664591442e+03 -4.4471086810e+03 6.9659521776e+03 7.9829010000e+01 0.0000e+00 1.0000e+00
       22  1    1    2    0    0 +8.8393907313e+02 +2.0559105210e+03 -1.9058968479e+03 2.9394828032e+03 0.0000000000e+00 0.0000e+00 1.0000e+00
       22  1    1    2    0    0 -2.7339089315e+03 -7.0936982713e+03 +6.3317206005e+03 9.8937100712e+03 0.0000000000e+00 0.0000e+00 1.0000e+00
</event>
<event>
 6      1 +1.4834189e-01 1.00008400e+04 7.81653100e-03 6.93867500e-02
  1000022 -1    0    0    0    0 +0.0000000000e+00 +0.0000000000e+00 +4.4721471353e+01 1.0000100000e+04 1.0000000000e+04 0.0000e+00 -1.0000e+00
  1000022 -1    0    0    0    0 -0.0000000000e+00 -0.0000000000e+00 -4.4721471353e+01 1.0000100000e+04 1.0000000000e+04 0.0000e+00 -1.0000e+00
      -24  1    1    2    0    0 +7.9717271645e+03 +2.7591481997e+03 +5.2909684968e+03 9.9580145149e+03 7.9829010000e+01 0.0000e+00 -1.0000e+00
       24  1    1    2    0    0 -6.9513965346e+03 -2.3243291566e+03 -4.7165273073e+03 8.7164455096e+03 7.9829010000e+01 0.0000e+00 -1.0000e+00
       22  1    1    2    0    0 -1.0365637161e+03 -4.5608924713e+02 -6.0596075786e+02 1.2843948688e+03 0.0000000000e+00 0.0000e+00 -1.0000e+00
       22  1    1    2    0    0 +1.6233086212e+01 +2.1270203979e+01 +3.1519568365e+01 4.1345106787e+01 0.0000000000e+00 0.0000e+00 1.0000e+00
</event>
<event>
 6      1 +1.4834189e-01 1.00166800e+04 7.81653100e-03 6.93771900e-02
  1000022 -1    0    0    0    0 +0.0000000000e+00 +0.0000000000e+00 +4.4721471353e+01 1.0000100000e+04 1.0000000000e+04 0.0000e+00 1.0000e+00
  1000022 -1    0    0    0    0 -0.0000000000e+00 -0.0000000000e+00 -4.4721471353e+01 1.0000100000e+04 1.0000000000e+04 0.0000e+00 1.0000e+00
      -24  1    1    2    0    0 +3.5782777562e+01 -1.2715517044e+03 +2.2044782099e+03 2.5464133587e+03 7.9829010000e+01 0.0000e+00 0.0000e+00
       24  1    1    2    0    0 +3.6692514507e+01 +5.1776331599e+03 -8.5355220351e+03 9.9835234542e+03 7.9829010000e+01 0.0000e+00 -1.0000e+00
       22  1    1    2    0    0 -1.0642955288e+02 -1.8790162629e+02 +1.7305315067e+02 2.7673392247e+02 0.0000000000e+00 0.0000e+00 -1.0000e+00
       22  1    1    2    0    0 +3.3954260812e+01 -3.7181798292e+03 +6.1579906745e+03 7.1935292646e+03 0.0000000000e+00 0.0000e+00 -1.0000e+00
</event>
<event>
 6      1 +1.4834189e-01 1.00468000e+04 7.81653100e-03 6.93590700e-02
  1000022 -1    0    0    0    0 +0.0000000000e+00 +0.0000000000e+00 +4.4721471353e+01 1.0000100000e+04 1.0000000000e+04 0.0000e+00 -1.0000e+00
  1000022 -1    0    0    0    0 -0.0000000000e+00 -0.0000000000e+00 -4.4721471353e+01 1.0000100000e+04 1.0000000000e+04 0.0000e+00 -1.0000e+00
      -24  1    1    2    0    0 +6.2002428990e+03 +8.4990634173e+02 +7.7394027698e+03 9.9533954358e+03 7.9829010000e+01 0.0000e+00 1.0000e+00
       24  1    1    2    0    0 -6.2338247475e+03 -7.7115098785e+02 -7.4778196239e+03 9.7662379567e+03 7.9829010000e+01 0.0000e+00 1.0000e+00
       22  1    1    2    0    0 +4.3834324132e+01 -7.7701941359e+01 -2.4769902359e+02 2.6327522852e+02 0.0000000000e+00 0.0000e+00 1.0000e+00
       22  1    1    2    0    0 -1.0252475608e+01 -1.0534125176e+00 -1.3884122370e+01 1.7291379008e+01 0.0000000000e+00 0.0000e+00 1.0000e+00
</event>
<event>
 6      1 +1.4834189e-01 9.19590600e+03 7.81653100e-03 6.98972000e-02
  1000022 -1    0    0    0    0 +0.0000000000e+00 +0.0000000000e+00 +4.4721471353e+01 1.0000100000e+04 1.0000000000e+04 0.0000e+00 -1.0000e+00
  1000022 -1    0    0    0    0 -0.0000000000e+00 -0.0000000000e+00 -4.4721471353e+01 1.0000100000e+04 1.0000000000e+04 0.0000e+00 -1.0000e+00
      -24  1    1    2    0    0 -1.0196840304e+02 +1.5322627331e+01 -2.5874877250e+01 1.3294554614e+02 7.9829010000e+01 0.0000e+00 1.0000e+00
       24  1    1    2    0    0 -7.5001941973e+03 -3.2526290612e+03 +2.5828663161e+03 8.5738019504e+03 7.9829010000e+01 0.0000e+00 -1.0000e+00
       22  1    1    2    0    0 +8.6403130397e+03 +4.1753822650e+03 -2.3407433947e+03 9.8776467907e+03 0.0000000000e+00 0.0000e+00 -1.0000e+00
       22  1    1    2    0    0 -1.0381504393e+03 -9.3807583105e+02 -2.1624804410e+02 1.4158057127e+03 0.0000000000e+00 0.0000e+00 -1.0000e+00
</event>
<event>
 6      1 +1.4834189e-01 1.00021700e+04 7.81653100e-03 6.93859500e-02
  1000022 -1    0    0    0    0 +0.0000000000e+00 +0.0000000000e+00 +4.4721471353e+01 1.0000100000e+04 1.0000000000e+04 0.0000e+00 1.0000e+00
  1000022 -1    0    0    0    0 -0.0000000000e+00 -0.0000000000e+00 -4.4721471353e+01 1.0000100000e+04 1.0000000000e+04 0.0000e+00 1.0000e+00
      -24  1    1    2    0    0 +1.3338401817e+02 +1.5904287819e+03 +2.7407962121e+02 1.6213412090e+03 7.9829010000e+01 0.0000e+00 1.0000e+00
       24  1    1    2    0    0 -6.1679895805e+02 -7.0581860159e+03 -8.4365170681e+02 7.1355834844e+03 7.9829010000e+01 0.0000e+00 -1.0000e+00
       22  1    1    2    0    0 +6.9475952306e+02 +8.3073693235e+03 +8.6206912922e+02 8.3808256787e+03 0.0000000000e+00 0.0000e+00 -1.0000e+00
       22  1    1    2    0    0 -2.1134458318e+02 -2.8396120895e+03 -2.9249704362e+02 2.8624496279e+03 0.0000000000e+00 0.0000e+00 1.0000e+00
</event>
<event>
 6      1 +1.4834189e-01 1.00070100e+04 7.81653100e-03 6.93830200e-02
  1000022 -1    0    0    0    0 +0.0000000000e+00 +0.0000000000e+00 +4.4721471353e+01 1.0000100000e+04 1.0000000000e+04 0.0000e+00 1.0000e+00
  1000022 -1    0    0    0    0 -0.0000000000e+00 -0.0000000000e+00 -4.4721471353e+01 1.0000100000e+04 1.0000000000e+04 0.0000e+00 1.0000e+00
      -24  1    1    2    0    0 -2.4337808347e+03 +4.9292265007e+03 -8.2907267814e+03 9.9480192139e+03 7.9829010000e+01 0.0000e+00 1.0000e+00
       24  1    1    2    0    0 +2.4717523756e+03 -4.9398948161e+03 +8.3127083192e+03 9.9809625223e+03 7.9829010000e+01 0.0000e+00 1.0000e+00
       22  1    1    2    0    0 -1.8356518760e+01 +2.1629458413e+01 -3.5153204658e+01 4.5172370427e+01 0.0000000000e+00 0.0000e+00 1.0000e+00
       22  1    1    2    0    0 -1.9615022172e+01 -1.0961142978e+01 +1.3171666814e+01 2.6045893282e+01 0.0000000000e+00 0.0000e+00 1.0000e+00
</event>
<event>
 6      1 +1.4834189e-01 1.00033600e+04 7.81653100e-03 6.93852300e-02
  1000022 -1    0    0    0    0 +0.0000000000e+00 +0.0000000000e+00 +4.4721471353e+01 1.0000100000e+04 1.0000000000e+04 0.0000e+00 1.0000e+00
  1000022 -1    0    0    0    0 -0.0000000000e+00 -0.0000000000e+00 -4.4721471353e+01 1.0000100000e+04 1.0000000000e+04 0.0000e+00 1.0000e+00
      -24  1    1    2    0    0 +4.7879233371e+03 +3.7131489503e+03 -7.8383339326e+03 9.9074485373e+03 7.9829010000e+01 0.0000e+00 -1.0000e+00
       24  1    1    2    0    0 -2.7915752314e+03 -2.1487430097e+03 +4.6610038730e+03 5.8430572965e+03 7.9829010000e+01 0.0000e+00 -1.0000e+00
       22  1    1    2    0    0 -2.0269407445e+03 -1.5701196610e+03 +3.2680507192e+03 4.1537838214e+03 0.0000000000e+00 0.0000e+00 -1.0000e+00
       22  1    1    2    0    0 +3.0592638926e+01 +5.7137204392e+00 -9.0720659627e+01 9.5910344806e+01 0.0000000000e+00 0.0000e+00 -1.0000e+00
</event>
<event>
 6      1 +1.4834189e-01 1.00329000e+04 7.81653100e-03 6.93674300e-02
  1000022 -1    0    0    0    0 +0.0000000000e+00 +0.0000000000e+00 +4.4721471353e+01 1.0000100000e+04 1.0000000000e+04 0.0000e+00 -1.0000e+00
  1000022 -1    0    0    0    0 -0.0000000000e+00 -0.0000000000e+00 -4.4721471353e+01 1.0000100000e+04 1.0000000000e+04 0.0000e+00 -1.0000e+00
      -24  1    1    2    0    0 -2.2479362926e+03 +6.6915549084e+03 -7.0363738858e+03 9.9672992731e+03 7.9829010000e+01 0.0000e+00 -1.0000e+00
       24  1    1    2    0    0 +7.4358800741e+02 -2.0878185621e+03 +2.8019767634e+03 3.5734235582e+03 7.9829010000e+01 0.0000e+00 -1.0000e+00
       22  1    1    2    0    0 +1.5346467396e+03 -4.5977363090e+03 +4.2070102524e+03 6.4181971804e+03 0.0000000000e+00 0.0000e+00 1.0000e+00
       22  1    1    2    0    0 -3.0298454452e+01 -6.0000372839e+00 +2.7386869981e+01 4.1279988336e+01 0.0000000000e+00 0.0000e+00 -1.0000e+00
</event>
<event>
 6      1 +1.4834189e-01 1.01836100e+04 7.81653100e-03 6.92775700e-02
  1000022 -1    0    0    0    0 +0.0000000000e+00 +0.0000000000e+00 +4.4721471353e+01 1.0000100000e+04 1.0000000000e+04 0.0000e+00 -1.0000e+00
  1000022 -1    0    0    0    0 -0.0000000000e+00 -0.0000000000e+00 -4.4721471353e+01 1.0000100000e+04 1.0000000000e+04 0.0000e+00 -1.0000e+00
      -24  1    1    2    0    0 +8.2136089357e+03 -5.1208598671e+03 +1.6347613791e+03 9.8165877455e+03 7.9829010000e+01 0.0000e+00 1.0000e+00
       24  1    1    2    0    0 -1.0857703858e+03 +6.1578030562e+02 -3.4662619158e+02 1.2979233810e+03 7.9829010000e+01 0.0000e+00 0.0000e+00
       22  1    1    2    0    0 -7.1784253765e+03 +3.8738881336e+03 -1.1512965880e+03 8.2378567596e+03 0.0000000000e+00 0.0000e+00 1.0000e+00
       22  1    1    2    0    0 +5.0586826557e+01 +6.3119142782e+02 -1.3683859951e+02 6.4783211397e+02 0.0000000000e+00 0.0000e+00 1.0000e+00
</event>
<event>
 6      1 +1.4834189e-01 1.00004900e+04 7.81653100e-03 6.93869600e-02
  1000022 -1    0    0    0    0 +0.0000000000e+00 +0.0000000000e+00 +4.4721471353e+01 1.0000100000e+04 1.0000000000e+04 0.0000e+00 -1.0000e+00
  1000022 -1    0    0    0    0 -0.0000000000e+00 -0.0000000000e+00 -4.4721471353e+01 1.0000100000e+04 1.0000000000e+04 0.0000e+00 -1.0000e+00
      -24  1    1    2    0    0 -6.8161237825e+02 -2.5926993293e+03 +1.4643369682e+03 3.0557062479e+03 7.9829010000e+01 0.0000e+00 0.0000e+00
       24  1    1    2    0    0 +2.2846749756e+03 +8.4390755185e+03 -4.6735775913e+03 9.9139515595e+03 7.9829010000e+01 0.0000e+00 1.0000e+00
       22  1    1    2    0    0 +2.5350438630e+01 +7.0532785326e+01 -4.1678260291e+01 8.5758940790e+01 0.0000000000e+00 0.0000e+00 -1.0000e+00
       22  1    1    2    0    0 -1.6284130360e+03 -5.9169089745e+03 +3.2509188834e+03 6.9447832518e+03 0.0000000000e+00 0.0000e+00 1.0000e+00
</event>
<event>
 6      1 +1.4834189e-01 1.04294600e+04 7.81653100e-03 6.91342900e-02
  1000022 -1    0    0    0    0 +0.0000000000e+00 +0.0000000000e+00 +4.4721471353e+01 1.0000100000e+04 1.0000000000e+04 0.0000e+00 1.0000e+00
  1000022 -1    0    0    0    0 -0.0000000000e+00 -0.0000000000e+00 -4.4721471353e+01 1.0000100000e+04 1.0000000000e+04 0.0000e+00 1.0000e+00
      -24  1    1    2    0    0 +1.7914569229e+03 -2.9172754605e+03 -6.6959637165e+03 7.5207790010e+03 7.9829010000e+01 0.0000e+00 -1.0000e+00
       24  1    1    2    0    0 -2.1295863792e+03 +3.3890914951e+03 +8.4299350524e+03 9.3322696579e+03 7.9829010000e+01 0.0000e+00 -1.0000e+00
       22  1    1    2    0    0 +1.2401797984e+03 -9.4746452577e+02 -1.3291361617e+03 2.0499604621e+03 0.0000000000e+00 0.0000e+00 1.0000e+00
       22  1    1    2    0    0 -9.0205034202e+02 +4.7564849107e+02 -4.0483517412e+02 1.0971908789e+03 0.0000000000e+00 0.0000e+00 -1.0000e+00
</event>
<event>
 6      1 +1.4834189e-01 7.19254400e+03 7.81653100e-03 7.14367000e-02
  1000022 -1    0    0    0    0 +0.0000000000e+00 +0.0000000000e+00 +4.4721471353e+01 1.0000100000e+04 1.0000000000e+04 0.0000e+00 1.0000e+00
  1000022 -1    0    0    0    0 -0.0000000000e+00 -0.0000000000e+00 -4.4721471353e+01 1.0000100000e+04 1.0000000000e+04 0.0000e+00 1.0000e+00
      -24  1    1    2    0    0 +1.4336842756e+02 +3.7390250027e+03 +3.0982089540e+03 4.8586143982e+03 7.9829010000e+01 0.0000e+00 -1.0000e+00
       24  1    1    2    0    0 +5.1286419635e+01 +1.0718622704e+02 +2.5733631007e+01 1.4544440419e+02 7.9829010000e+01 0.0000e+00 1.0000e+00
       22  1    1    2    0    0 +4.8031475645e+01 +2.9485866894e+03 +4.1164762242e+03 5.0637779367e+03 0.0000000000e+00 0.0000e+00 -1.0000e+00
       22  1    1    2    0    0 -2.4268632284e+02 -6.7947979191e+03 -7.2404188093e+03 9.9323632609e+03 0.0000000000e+00 0.0000e+00 -1.0000e+00
</event>
<event>
 6      1 +1.4834189e-01 1.00781400e+04 7.81653100e-03 6.93402900e-02
  1000022 -1    0    0    0    0 +0.0000000000e+00 +0.0000000000e+00 +4.4721471353e+01 1.0000100000e+04 1.0000000000e+04 0.0000e+00 -1.0000e+00
  1000022 -1    0    0    0    0 -0.0000000000e+00 -0.0000000000e+00 -4.4721471353e+01 1.0000100000e+04 1.0000000000e+04 0.0000e+00 -1.0000e+00
      -24  1    1    2    0    0 +7.4285094919e+03 +3.5893162276e+03 +3.9281666874e+03 9.1379872208e+03 7.9829010000e+01 0.0000e+00 -1.0000e+00
       24  1    1    2    0    0 -4.9449026342e+03 -2.5621598796e+03 -1.7361526282e+03 5.8341515176e+03 7.9829010000e+01 0.0000e+00 -1.0000e+00
       22  1    1    2    0    0 +6.0057592874e+02 +3.0558610988e+02 +4.0086994019e+02 7.8407335479e+02 0.0000000000e+00 0.0000e+00 -1.0000e+00
       22  1    1    2    0    0 -3.0841827864e+03 -1.3327424579e+03 -2.5928839994e+03 4.2439879068e+03 0.0000000000e+00 0.0000e+00 -1.0000e+00
</event>
<event>
 6      1 +1.4834189e-01 1.00049200e+04 7.81653100e-03 6.93842900e-02
  1000022 -1    0    0    0    0 +0.0000000000e+00 +0.0000000000e+00 +4.4721471353e+01 1.0000100000e+04 1.0000000000e+04 0.0000e+00 -1.0000e+00
  1000022 -1    0    0    0    0 -0.0000000000e+00 -0.0000000000e+00 -4.4721471353e+01 1.0000100000e+04 1.0000000000e+04 0.0000e+00 -1.0000e+00
      -24  1    1    2    0    0 +4.6712547791e+03 +1.7292539815e+03 +8.2637755958e+03 9.6492124193e+03 7.9829010000e+01 0.0000e+00 1.0000e+00
       24  1    1    2    0    0 -4.8491545009e+03 -1.7651636643e+03 -8.5597444823e+03 9.9952839084e+03 7.9829010000e+01 0.0000e+00 1.0000e+00
       22  1    1    2    0    0 +1.6127334072e+02 +5.5828700539e+01 +2.6625853331e+02 3.1625866121e+02 0.0000000000e+00 0.0000e+00 -1.0000e+00
       22  1    1    2    0    0 +1.6626381056e+01 -1.9919017705e+01 +2.9710353245e+01 3.9445011133e+01 0.0000000000e+00 0.0000e+00 -1.0000e+00
</event>
<event>
 6      1 +1.4834189e-01 7.73140300e+03 7.81653100e-03 7.09769600e-02
  1000022 -1    0    0    0    0 +0.0000000000e+00 +0.0000000000e+00 +4.4721471353e+01 1.0000100000e+04 1.0000000000e+04 0.0000e+00 -1.0000e+00
  1000022 -1    0    0    0    0 -0.0000000000e+00 -0.0000000000e+00 -4.4721471353e+01 1.0000100000e+04 1.0000000000e+04 0.0000e+00 -1.0000e+00
      -24  1    1    2    0    0 +1.6309413775e+03 +2.0510081603e+03 +3.0636655882e+03 4.0322479782e+03 7.9829010000e+01 0.0000e+00 1.0000e+00
       24  1    1    2    0    0 -6.6169127819e+03 -6.1409958440e+03 -1.2696833038e+03 9.1166788405e+03 7.9829010000e+01 0.0000e+00 1.0000e+00
       22  1    1    2    0    0 +5.0492569876e+03 +4.1374299202e+03 -1.7409684348e+03 6.7560560656e+03 0.0000000000e+00 0.0000e+00 1.0000e+00
       22  1    1    2    0    0 -6.3285583245e+01 -4.7442236501e+01 -5.3013849652e+01 9.5217115614e+01 0.0000000000e+00 0.0000e+00 -1.0000e+00
</event>
<event>
 6      1 +1.4834189e-01 1.00731700e+04 7.81653100e-03 6.93432600e-02
  1000022 -1    0    0    0    0 +0.0000000000e+00 +0.0000000000e+00 +4.4721471353e+01 1.0000100000e+04 1.0000000000e+04 0.0000e+00 1.0000e+00
  1000022 -1    0    0    0    0 -0.0000000000e+00 -0.0000000000e+00 -4.4721471353e+01 1.0000100000e+04 1.0000000000e+04 0.0000e+00 1.0000e+00
      -24  1    1    2    0    0 -3.3267789587e+03 -4.1822883183e+03 -8.3654436168e+03 9.9270344713e+03 7.9829010000e+01 0.0000e+00 1.0000e+00
       24  1    1    2    0    0 +2.3165278088e+03 +3.8516626454e+03 +6.2713123519e+03 7.7160441620e+03 7.9829010000e+01 0.0000e+00 1.0000e+00
       22  1    1    2    0    0 +2.8983507648e+01 +5.2119442228e+01 +8.4270674892e+01 1.0323771898e+02 0.0000000000e+00 0.0000e+00 1.0000e+00
       22  1    1    2    0    0 +9.8126764227e+02 +2.7850623062e+02 +2.0098605900e+03 2.2538836477e+03 0.0000000000e+00 0.0000e+00 1.0000e+00
</event>
<event>
 6      1 +1.4834189e-01 1.03510200e+04 7.81653100e-03 6.91795600e-02
  1000022 -1    0    0    0    0 +0.0000000000e+00 +0.0000000000e+00 +4.4721471353e+01 1.0000100000e+04 1.0000000000e+04 0.0000e+00 1.0000e+00
  1000022 -1    0    0    0    0 -0.0000000000e+00 -0.0000000000e+00 -4.4721471353e+01 1.0000100000e+04 1.0000000000e+04 0.0000e+00 1.0000e+00
      -24  1    1    2    0    0 -8.9964650654e+02 +9.4922284249e+03 +1.4793640155e+03 9.6491789738e+03 7.9829010000e+01 0.0000e+00 -1.0000e+00
       24  1    1    2    0    0 +4.3337295685e+01 -7.5843616040e+03 -1.1460902615e+03 7.6710047985e+03 7.9829010000e+01 0.0000e+00 -1.0000e+00
       22  1    1    2    0    0 +7.4594557632e+02 +1.2557786948e+00 -6.1273104132e+01 7.4845893214e+02 0.0000000000e+00 0.0000e+00 -1.0000e+00
       22  1    1    2    0    0 +1.1036363453e+02 -1.9091225996e+03 -2.7200064983e+02 1.9315572955e+03 0.0000000000e+00 0.0000e+00 -1.0000e+00
</event>
<event>
 6      1 +1.4834189e-01 1.01029400e+04 7.81653100e-03 6.93254700e-02
  1000022 -1    0    0    0    0 +0.0000000000e+00 +0.0000000000e+00 +4.4721471353e+01 1.0000100000e+04 1.0000000000e+04 0.0000e+00 1.0000e+00
  1000022 -1    0    0    0    0 -0.0000000000e+00 -0.0000000000e+00 -4.4721471353e+01 1.0000100000e+04 1.0000000000e+04 0.0000e+00 1.0000e+00
      -24  1    1    2    0    0 +5.1423533421e+03 -1.4628480184e+03 -8.3286058020e+03 9.8972607067e+03 7.9829010000e+01 0.0000e+00 -1.0000e+00
       24  1    1    2    0    0 -3.7911180027e+03 +1.3398709084e+03 +5.9402416087e+03 7.1736094681e+03 7.9829010000e+01 0.0000e+00 -1.0000e+00
       22  1    1    2    0    0 -9.9503538877e+01 -3.3378204827e+02 +3.4754625405e+02 4.9203638961e+02 0.0000000000e+00 0.0000e+00 -1.0000e+00
       22  1    1    2    0    0 -1.2517318006e+03 +4.5675915828e+02 +2.0408179393e+03 2.4372934355e+03 0.0000000000e+00 0.0000e+00 -1.0000e+00
</event>
<event>
 6      1 +1.4834189e-01 1.02919800e+04 7.81653100e-03 6.92139200e-02
  1000022 -1    0    0    0    0 +0.0000000000e+00 +0.0000000000e+00 +4.4721471353e+01 1.0000100000e+04 1.0000000000e+04 0.0000e+00 -1.0000e+00
  1000022 -1    0    0    0    0 -0.0000000000e+00 -0.0000000000e+00 -4.4721471353e+01 1.0000100000e+04 1.0000000000e+04 0.0000e+00 -1.0000e+00
      -24  1    1    2    0    0 -8.4862967978e+03 -3.9277028351e+03 +2.6075200625e+03 9.7082241655e+03 7.9829010000e+01 0.0000e+00 1.0000e+00
       24  1    1    2    0    0 +4.3485080701e+03 +1.6840125384e+03 -6.5524335697e+02 4.7096854664e+03 7.9829010000e+01 0.0000e+00 1.0000e+00
       22  1    1    2    0    0 +3.6502898004e+03 +2.5872475733e+03 -1.2193603895e+03 4.6373813075e+03 0.0000000000e+00 0.0000e+00 1.0000e+00
       22  1    1    2    0    0 +4.8749892734e+02 -3.4355727653e+02 -7.3291631602e+02 9.4490906054e+02 0.0000000000e+00 0.0000e+00 -1.0000e+00
</event>
<event>
 6      1 +1.4834189e-01 1.00216200e+04 7.81653100e-03 6.93742100e-02
  1000022 -1    0    0    0    0 +0.0000000000e+00 +0.0000000000e+00 +4.4721471353e+01 1.0000100000e+04 1.0000000000e+04 0.0000e+00 -1.0000e+00
  1000022 -1    0    0    0    0 -0.0000000000e+00 -0.0000000000e+00 -4.4721471353e+01 1.0000100000e+04 1.0000000000e+04 0.0000e+00 -1.0000e+00
      -24  1    1    2    0    0 +3.9494668268e+02 +4.7368946591e+02 -3.4472883234e+02 7.1103813608e+02 7.9829010000e+01 0.0000e+00 -1.0000e+00
       24  1    1    2    0    0 -6.7730877560e+03 -6.9877433030e+03 +2.2050679622e+03 9.9785756301e+03 7.9829010000e+01 0.0000e+00 -1.0000e+00
       22  1    1    2    0    0 +6.3655260548e+03 +6.5129587218e+03 -1.8475272664e+03 9.2925728551e+03 0.0000000000e+00 0.0000e+00 -1.0000e+00
       22  1    1    2    0    0 +1.2615018469e+01 +1.0951152474e+00 -1.2811863431e+01 1.8013378721e+01 0.0000000000e+00 0.0000e+00 1.0000e+00
</event>
<event>
 6      1 +1.4834189e-01 1.06702000e+04 7.81653100e-03 6.89977800e-02
  1000022 -1    0    0    0    0 +0.0000000000e+00 +0.0000000000e+00 +4.4721471353e+01 1.0000100000e+04 1.0000000000e+04 0.0000e+00 1.0000e+00
  1000022 -1    0    0    0    0 -0.0000000000e+00 -0.0000000000e+00 -4.4721471353e+01 1.0000100000e+04 1.0000000000e+04 0.0000e+00 1.0000e+00
      -24  1    1    2    0    0 +7.5460605302e+03 +5.4766128600e+03 +3.2603304419e+02 9.3300047246e+03 7.9829010000e+01 0.0000e+00 1.0000e+00
       24  1    1    2    0    0 -3.7554089526e+03 -4.8382541087e+02 -1.4706213098e+03 4.0627925295e+03 7.9829010000e+01 0.0000e+00 1.0000e+00
       22  1    1    2    0    0 -2.2653740500e+02 -7.0655103588e+00 -2.3383786445e+02 3.2565205996e+02 0.0000000000e+00 0.0000e+00 -1.0000e+00
       22  1    1    2    0    0 -3.5641141726e+03 -4.9857219387e+03 +1.3784261300e+03 6.2817506860e+03 0.0000000000e+00 0.0000e+00 1.0000e+00
</event>
<event>
 6      1 +1.4834189e-01 9.93137800e+03 7.81653100e-03 6.94288600e-02
  1000022 -1    0    0    0    0 +0.0000000000e+00 +0.0000000000e+00 +4.4721471353e+01 1.0000100000e+04 1.0000000000e+04 0.0000e+00 -1.0000e+00
  1000022 -1    0    0    0    0 -0.0000000000e+00 -0.0000000000e+00 -4.4721471353e+01 1.0000100000e+04 1.0000000000e+04 0.0000e+00 -1.0000e+00
      -24  1    1    2    0    0 -8.1671225335e+03 +1.1583596245e+03 -5.3477820835e+03 9.8310138531e+03 7.9829010000e+01 0.0000e+00 -1.0000e+00
       24  1    1    2    0    0 +8.8936438950e+01 +7.1930655999e+01 -9.0151768722e+01 1.6608347807e+02 7.9829010000e+01 0.0000e+00 -1.0000e+00
       22  1    1    2    0    0 -7.0666540761e+01 +7.9334397912e+01 -2.0200611440e+01 1.0814698968e+02 0.0000000000e+00 0.0000e+00 -1.0000e+00
       22  1    1    2    0    0 +8.1488526353e+03 -1.3096246784e+03 +5.4581344636e+03 9.8949556792e+03 0.0000000000e+00 0.0000e+00 -1.0000e+00
</event>
<event>
 6      1 +1.4834189e-01 8.91649200e+03 7.81653100e-03 7.00868200e-02
  1000022 -1    0    0    0    0 +0.0000000000e+00 +0.0000000000e+00 +4.4721471353e+01 1.0000100000e+04 1.0000000000e+04 0.0000e+00 1.0000e+00
  1000022 -1    0    0    0    0 -0.0000000000e+00 -0.0000000000e+00 -4.4721471353e+01 1.0000100000e+04 1.0000000000e+04 0.0000e+00 1.0000e+00
      -24  1    1    2    0    0 +6.0761308703e+03 +6.1318197027e+03 +3.8002595907e+03 9.4322279896e+03 7.9829010000e+01 0.0000e+00 -1.0000e+00
       24  1    1    2    0    0 +2.2287454643e+02 -7.2796343418e+02 -3.8506734941e+02 8.5688584967e+02 7.9829010000e+01 0.0000e+00 1.0000e+00
       22  1    1    2    0    0 +3.9088766661e+02 -1.0094903790e+03 -5.0315906694e+02 1.1937474774e+03 0.0000000000e+00 0.0000e+00 -1.0000e+00
       22  1    1    2    0    0 -6.6898930834e+03 -4.3943658895e+03 -2.9120331744e+03 8.5173386833e+03 0.0000000000e+00 0.0000e+00 -1.0000e+00
</event>
<event>
 6      1 +1.4834189e-01 1.06058700e+04 7.81653100e-03 6.90339000e-02
  1000022 -1    0    0    0    0 +0.0000000000e+00 +0.0000000000e+00 +4.4721471353e+01 1.0000100000e+04 1.0000000000e+04 0.0000e+00 -1.0000e+00
  1000022 -1    0    0    0    0 -0.0000000000e+00 -0.0000000000e+00 -4.4721471353e+01 1.0000100000e+04 1.0000000000e+04 0.0000e+00 -1.0000e+00
      -24  1    1    2    0    0 -1.2878068797e+03 -3.8636683945e+03 -3.9828961593e+03 5.6970355895e+03 7.9829010000e+01 0.0000e+00 -1.0000e+00
       24  1    1    2    0    0 +3.6783780468e+03 +7.6543921652e+03 +3.0324273075e+03 9.0178807111e+03 7.9829010000e+01 0.0000e+00 -1.0000e+00
       22  1    1    2    0    0 +1.7604738450e+02 +3.1040272944e+02 +1.1988832413e+02 3.7645151919e+02 0.0000000000e+00 0.0000e+00 -1.0000e+00
       22  1    1    2    0    0 -2.5666185516e+03 -4.1011265002e+03 +8.3058052764e+02 4.9088321801e+03 0.0000000000e+00 0.0000e+00 -1.0000e+00
</event>
<event>
 6      1 +1.4834189e-01 1.00367300e+04 7.81653100e-03 6.93651200e-02
  1000022 -1    0    0    0    0 +0.0000000000e+00 +0.0000000000e+00 +4.4721471353e+01 1.0000100000e+04 1.0000000000e+04 0.0000e+00 -1.0000e+00
  1000022 -1    0    0    0    0 -0.0000000000e+00 -0.0000000000e+00 -4.4721471353e+01 1.0000100000e+04 1.0000000000e+04 0.0000e+00 -1.0000e+00
      -24  1    1    2    0    0 +5.0160265545e+03 -6.7873307763e+03 +5.2107396253e+03 9.9190000290e+03 7.9829010000e+01 0.0000e+00 -1.0000e+00
       24  1    1    2    0    0 -4.6377038974e+03 +6.6350024676e+03 -5.1277996105e+03 9.5829148332e+03 7.9829010000e+01 0.0000e+00 -1.0000e+00
       22  1    1    2    0    0 -4.0193955032e+02 +1.8194632233e+02 -1.0623765629e+02 4.5381307379e+02 0.0000000000e+00 0.0000e+00 -1.0000e+00
       22  1    1    2    0    0 +2.3616893165e+01 -2.9618013652e+01 +2.3297641438e+01 4.4472063951e+01 0.0000000000e+00 0.0000e+00 1.0000e+00
</event>
<event>
 6      1 +1.4834189e-01 1.00781700e+04 7.81653100e-03 6.93402700e-02
  1000022 -1    0    0    0    0 +0.0000000000e+00 +0.0000000000e+00 +4.4721471353e+01 1.0000100000e+04 1.0000000000e+04 0.0000e+00 -1.0000e+00
  1000022 -1    0    0    0    0 -0.0000000000e+00 -0.0000000000e+00 -4.4721471353e+01 1.0000100000e+04 1.0000000000e+04 0.0000e+00 -1.0000e+00
      -24  1    1    2    0    0 +5.7861993423e+03 +6.1668162248e+03 +2.5464929318e+03 8.8318018604e+03 7.9829010000e+01 0.0000e+00 1.0000e+00
       24  1    1    2    0    0 -6.3575094413e+03 -5.8795442568e+03 -2.1250814851e+03 8.9167993672e+03 7.9829010000e+01 0.0000e+00 1.0000e+00
       22  1    1    2    0    0 -5.3899284775e+02 -8.1824364857e+02 -2.2462779873e+02 1.0052331104e+03 0.0000000000e+00 0.0000e+00 1.0000e+00
       22  1    1    2    0    0 +1.1103029468e+03 +5.3097168058e+02 -1.9678364797e+02 1.2463656620e+03 0.0000000000e+00 0.0000e+00 -1.0000e+00
</event>
<event>
 6      1 +1.4834189e-01 6.12035400e+03 7.81653100e-03 7.24861000e-02
  1000022 -1    0    0    0    0 +0.0000000000e+00 +0.0000000000e+00 +4.4721471353e+01 1.0000100000e+04 1.0000000000e+04 0.0000e+00 1.0000e+00
  1000022 -1    0    0    0    0 -0.0000000000e+00 -0.0000000000e+00 -4.4721471353e+01 1.0000100000e+04 1.0000000000e+04 0.0000e+00 1.0000e+00
      -24  1    1    2    0    0 +2.9639458423e+02 +6.7619061117e+03 -3.3518411450e+03 7.5533062790e+03 7.9829010000e+01 0.0000e+00 -1.0000e+00
       24  1    1    2    0    0 +1.9202230785e+03 -1.1179492344e+03 +1.2005346550e+03 2.5268009994e+03 7.9829010000e+01 0.0000e+00 -1.0000e+00
       22  1    1    2    0    0 -4.9393736095e+03 -3.6961826553e+03 +5.0604928349e+02 6.1899324514e+03 0.0000000000e+00 0.0000e+00 -1.0000e+00
       22  1    1    2    0    0 +2.7227559468e+03 -1.9477742220e+03 +1.6452572065e+03 3.7301602701e+03 0.0000000000e+00 0.0000e+00 -1.0000e+00
</event>
<event>
 6      1 +1.4834189e-01 1.00002000e+04 7.81653100e-03 6.93871300e-02
  1000022 -1    0    0    0    0 +0.0000000000e+00 +0.0000000000e+00 +4.4721471353e+01 1.0000100000e+04 1.0000000000e+04 0.0000e+00 1.0000e+00
  1000022 -1    0    0    0    0 -0.0000000000e+00 -0.0000000000e+00 -4.4721471353e+01 1.0000100000e+04 1.0000000000e+04 0.0000e+00 1.0000e+00
      -24  1    1    2    0    0 +2.5144048475e+03 +8.1837670589e+03 +3.9721955678e+03 9.4382723690e+03 7.9829010000e+01 0.0000e+00 1.0000e+00
       24  1    1    2    0    0 -2.6239236966e+03 -8.5614046013e+03 -4.1751527011e+03 9.8803287931e+03 7.9829010000e+01 0.0000e+00 1.0000e+00
       22  1    1    2    0    0 -2.9708058215e+01 -1.0574012534e+02 -4.7502515986e+01 1.1966633551e+02 0.0000000000e+00 0.0000e+00 -1.0000e+00
       22  1    1    2    0    0 +1.3922690726e+02 +4.8337766765e+02 +2.5045964924e+02 5.6193250234e+02 0.0000000000e+00 0.0000e+00 1.0000e+00
</event>
<event>
 6      1 +1.4834189e-01 1.00011500e+04 7.81653100e-03 6.93865600e-02
  1000022 -1    0    0    0    0 +0.0000000000e+00 +0.0000000000e+00 +4.4721471353e+01 1.0000100000e+04 1.0000000000e+04 0.0000e+00 -1.0000e+00
  1000022 -1    0    0    0    0 -0.0000000000e+00 -0.0000000000e+00 -4.4721471353e+01 1.0000100000e+04 1.0000000000e+04 0.0000e+00 -1.0000e+00
      -24  1    1    2    0    0 +2.9658837056e+02 -9.5018515118e+03 -2.8864267083e+03 9.9353398848e+03 7.9829010000e+01 0.0000e+00 -1.0000e+00
       24  1    1    2    0    0 -2.6083827233e+02 +5.3139197218e+03 +1.5654760854e+03 5.5464283516e+03 7.9829010000e+01 0.0000e+00 -1.0000e+00
       22  1    1    2    0    0 -3.9526399153e+01 +4.2503240548e+03 +1.3332996293e+03 4.4547171412e+03 0.0000000000e+00 0.0000e+00 -1.0000e+00
       22  1    1    2    0    0 +3.7763009207e+00 -6.2392264800e+01 -1.2349006459e+01 6.3714622467e+01 0.0000000000e+00 0.0000e+00 1.0000e+00
</event>
<event>
 6      1 +1.4834189e-01 1.01742100e+04 7.81653100e-03 6.92831300e-02
  1000022 -1    0    0    0    0 +0.0000000000e+00 +0.0000000000e+00 +4.4721471353e+01 1.0000100000e+04 1.0000000000e+04 0.0000e+00 1.0000e+00
  1000022 -1    0    0    0    0 -0.0000000000e+00 -0.0000000000e+00 -4.4721471353e+01 1.0000100000e+04 1.0000000000e+04 0.0000e+00 1.0000e+00
      -24  1    1    2    0    0 +8.5316413446e+03 +4.6087728221e+03 -1.4982176725e+03 9.8122739375e+03 7.9829010000e+01 0.0000e+00 1.0000e+00
       24  1    1    2    0    0 -7.6625045067e+02 +3.1916067101e+02 +2.9888728355e+02 8.8583834088e+02 7.9829010000e+01 0.0000e+00 1.0000e+00
       22  1    1    2    0    0 -7.7781214234e+03 -4.9327657099e+03 +1.2010099782e+03 9.2883677465e+03 0.0000000000e+00 0.0000e+00 1.0000e+00
       22  1    1    2    0    0 +1.2730529461e+01 +4.8322167743e+00 -1.6795892791e+00 1.3719975199e+01 0.0000000000e+00 0.0000e+00 1.0000e+00
</event>
<event>
 6      1 +1.4834189e-01 1.00045300e+04 7.81653100e-03 6.93845200e-02
  1000022 -1    0    0    0    0 +0.0000000000e+00 +0.0000000000e+00 +4.4721471353e+01 1.0000100000e+04 1.0000000000e+04 0.0000e+00 -1.0000e+00
  1000022 -1    0    0    0    0 -0.0000000000e+00 -0.0000000000e+00 -4.4721471353e+01 1.0000100000e+04 1.0000000000e+04 0.0000e+00 -1.0000e+00
      -24  1    1    2    0    0 -7.0382454905e+03 -2.6400641224e+03 -4.8463823234e+03 8.9443072650e+03 7.9829010000e+01 0.0000e+00 1.0000e+00
       24  1    1    2    0    0 +7.7579595357e+03 +2.9398884820e+03 +5.3926923859e+03 9.8952708040e+03 7.9829010000e+01 0.0000e+00 1.0000e+00
       22  1    1    2    0    0 -8.2199349994e+02 -2.9652107750e+02 -5.8460163902e+02 1.0513596624e+03 0.0000000000e+00 0.0000e+00 -1.0000e+00
       22  1    1    2    0    0 +1.0227945472e+02 -3.3032820367e+00 +3.8291576487e+01 1.0926226870e+02 0.0000000000e+00 0.0000e+00 -1.0000e+00
</event>
<event>
 6      1 +1.4834189e-01 1.00046800e+04 7.81653100e-03 6.93844300e-02
  1000022 -1    0    0    0    0 +0.0000000000e+00 +0.0000000000e+00 +4.4721471353e+01 1.0000100000e+04 1.0000000000e+04 0.0000e+00 -1.0000e+00
  1000022 -1    0    0    0    0 -0.0000000000e+00 -0.0000000000e+00 -4.4721471353e+01 1.0000100000e+04 1.0000000000e+04 0.0000e+00 -1.0000e+00
      -24  1    1    2    0    0 +9.6310672958e+03 +2.0678060789e+03 -1.6943297897e+03 9.9955192634e+03 7.9829010000e+01 0.0000e+00 1.0000e+00
       24  1    1    2    0    0 -9.4630123108e+03 -2.0016596634e+03 +1.6541467838e+03 9.8131451459e+03 7.9829010000e+01 0.0000e+00 1.0000e+00
       22  1    1    2    0    0 -1.3055587235e+02 -2.7561784488e+01 +2.6961391362e+01 1.3613010099e+02 0.0000000000e+00 0.0000e+00 1.0000e+00
       22  1    1    2    0    0 -3.7499112731e+01 -3.8584630948e+01 +1.3221614568e+01 5.5405489735e+01 0.0000000000e+00 0.0000e+00 1.0000e+00
</event>
<event>
 6      1 +1.4834189e-01 1.09379400e+04 7.81653100e-03 6.88501500e-02
  1000022 -1    0    0    0    0 +0.0000000000e+00 +0.0000000000e+00 +4.4721471353e+01 1.0000100000e+04 1.0000000000e+04 0.0000e+00 1.0000e+00
  1000022 -1    0    0    0    0 -0.0000000000e+00 -0.0000000000e+00 -4.4721471353e+01 1.0000100000e+04 1.0000000000e+04 0.0000e+00 1.0000e+00
      -24  1    1    2    0    0 +3.4454600418e+03 +2.5247592816e+03 +7.9495340132e+03 9.0248029357e+03 7.9829010000e+01 0.0000e+00 -1.0000e+00
       24  1    1    2    0    0 -2.3307863821e+03 -4.5347616500e+03 -4.7614892008e+03 6.9767313594e+03 7.9829010000e+01 0.0000e+00 -1.0000e+00
       22  1    1    2    0    0 -1.1034760620e+03 +2.0314465790e+03 -3.2166382094e+03 3.9612114299e+03 0.0000000000e+00 0.0000e+00 -1.0000e+00
       22  1    1    2    0    0 -1.1197597710e+01 -2.1444210594e+01 +2.8593396975e+01 3.7454274963e+01 0.0000000000e+00 0.0000e+00 1.0000e+00
</event>
<event>
 6      1 +1.4834189e-01 1.00002100e+04 7.81653100e-03 6.93871300e-02
  1000022 -1    0    0    0    0 +0.0000000000e+00 +0.0000000000e+00 +4.4721471353e+01 1.0000100000e+04 1.0000000000e+04 0.0000e+00 -1.0000e+00
  1000022 -1    0    0    0    0 -0.0000000000e+00 -0.0000000000e+00 -4.4721471353e+01 1.0000100000e+04 1.0000000000e+04 0.0000e+00 -1.0000e+00
      -24  1    1    2    0    0 +5.5883289516e+03 -7.6091415069e+03 -3.2593708108e+03 9.9879089752e+03 7.9829010000e+01 0.0000e+00 -1.0000e+00
       24  1    1    2    0    0 -5.5730672253e+03 +7.5930788802e+03 +3.2554279607e+03 9.9658471320e+03 7.9829010000e+01 0.0000e+00 -1.0000e+00
       22  1    1    2    0    0 +7.4850936194e+00 -8.1452714719e+00 -4.8547195141e+00 1.2080578438e+01 0.0000000000e+00 0.0000e+00 -1.0000e+00
       22  1    1    2    0    0 -2.2746819939e+01 +2.4207898107e+01 +8.7975695607e+00 3.4363314425e+01 0.0000000000e+00 0.0000e+00 -1.0000e+00
</event>
<event>
 6      1 +1.4834189e-01 1.00349100e+04 7.81653100e-03 6.93662200e-02
  1000022 -1    0    0    0    0 +0.0000000000e+00 +0.0000000000e+00 +4.4721471353e+01 1.0000100000e+04 1.0000000000e+04 0.0000e+00 -1.0000e+00
  1000022 -1    0    0    0    0 -0.0000000000e+00 -0.0000000000e+00 -4.4721471353e+01 1.0000100000e+04 1.0000000000e+04 0.0000e+00 -1.0000e+00
      -24  1    1    2    0    0 +1.8486035990e+03 -5.4546114119e+03 +7.3571511726e+03 9.3436698876e+03 7.9829010000e+01 0.0000e+00 1.0000e+00
       24  1    1    2    0    0 -1.8048267602e+02 +5.8683685768e+01 -1.4015940496e+02 2.4906846640e+02 7.9829010000e+01 0.0000e+00 0.0000e+00
       22  1    1    2    0    0 +1.1583904012e+02 -3.6014435903e+02 +4.9324621524e+02 6.2162245085e+02 0.0000000000e+00 0.0000e+00 -1.0000e+00
       22  1    1    2    0    0 -1.7839599631e+03 +5.7560720852e+03 -7.7102379829e+03 9.7858391951e+03 0.0000000000e+00 0.0000e+00 1.0000e+00
</event>
<event>
 6      1 +1.4834189e-01 1.05449100e+04 7.81653100e-03 6.90683600e-02
  1000022 -1    0    0    0    0 +0.0000000000e+00 +0.0000000000e+00 +4.4721471353e+01 1.0000100000e+04 1.0000000000e+04 0.0000e+00 -1.0000e+00
  1000022 -1    0    0    0    0 -0.0000000000e+00 -0.0000000000e+00 -4.4721471353e+01 1.0000100000e+04 1.0000000000e+04 0.0000e+00 -1.0000e+00
      -24  1    1    2    0    0 +4.4289219152e+02 -4.6231088534e+03 +4.4493381670e+02 4.6662219981e+03 7.9829010000e+01 0.0000e+00 -1.0000e+00
       24  1    1    2    0    0 +2.8533354994e+02 +2.6363276593e+02 -6.8999507636e+02 7.9585384729e+02 7.9829010000e+01 0.0000e+00 -1.0000e+00
       22  1    1    2    0    0 -3.1640248037e+03 -3.1334727090e+03 +3.8378804889e+03 5.8786929520e+03 0.0000000000e+00 0.0000e+00 -1.0000e+00
       22  1    1    2    0    0 +2.4357990622e+03 +7.4929487965e+03 -3.5928192293e+03 8.6594312026e+03 0.0000000000e+00 0.0000e+00 -1.0000e+00
</event>
<event>
 6      1 +1.4834189e-01 1.00132800e+04 7.81653100e-03 6.93792400e-02
  1000022 -1    0    0    0    0 +0.0000000000e+00 +0.0000000000e+00 +4.4721471353e+01 1.0000100000e+04 1.0000000000e+04 0.0000e+00 1.0000e+00
  1000022 -1    0    0    0    0 -0.0000000000e+00 -0.0000000000e+00 -4.4721471353e+01 1.0000100000e+04 1.0000000000e+04 0.0000e+00 1.0000e+00
      -24  1    1    2    0    0 -3.8958132192e+02 +9.1038834727e+03 +3.6499494779e+03 9.8163624501e+03 7.9829010000e+01 0.0000e+00 -1.0000e+00
       24  1    1    2    0    0 +4.7714748670e+02 -9.2705481835e+03 -3.6826009965e+03 9.9869242571e+03 7.9829010000e+01 0.0000e+00 -1.0000e+00
       22  1    1    2    0    0 -8.3682159012e+01 +1.1829877841e+02 +1.6836303846e+01 1.4587928515e+02 0.0000000000e+00 0.0000e+00 1.0000e+00
       22  1    1    2    0    0 -3.8840057677e+00 +4.8365932409e+01 +1.5815214766e+01 5.1034007649e+01 0.0000000000e+00 0.0000e+00 1.0000e+00
</event>
<event>
 6      1 +1.4834189e-01 1.00085600e+04 7.81653100e-03 6.93820900e-02
  1000022 -1    0    0    0    0 +0.0000000000e+00 +0.0000000000e+00 +4.4721471353e+01 1.0000100000e+04 1.0000000000e+04 0.0000e+00 1.0000e+00
  1000022 -1    0    0    0    0 -0.0000000000e+00 -0.0000000000e+00 -4.4721471353e+01 1.0000100000e+04 1.0000000000e+04 0.0000e+00 1.0000e+00
      -24  1    1    2    0    0 -9.9668984033e+02 +3.6786059827e+03 +1.5199861530e+03 4.1039326493e+03 7.9829010000e+01 0.0000e+00 1.0000e+00
       24  1    1    2    0    0 +2.4249431404e+03 -8.7883124674e+03 -4.0879963854e+03 9.9916401245e+03 7.9829010000e+01 0.0000e+00 1.0000e+00
       22  1    1    2    0    0 +9.2372509296e+00 +1.9705856992e+01 -5.8201661006e+00 2.2528247557e+01 0.0000000000e+00 0.0000e+00 -1.0000e+00
       22  1    1    2    0    0 -1.4374905510e+03 +5.0900006277e+03 +2.5738303985e+03 5.8820989787e+03 0.0000000000e+00 0.0000e+00 1.0000e+00
</event>
<event>
 6      1 +1.4834189e-01 1.00001300e+04 7.81653100e-03 6.93871800e-02
  1000022 -1    0    0    0    0 +0.0000000000e+00 +0.0000000000e+00 +4.4721471353e+01 1.0000100000e+04 1.0000000000e+04 0.0000e+00 1.0000e+00
  1000022 -1    0    0    0    0 -0.0000000000e+00 -0.0000000000e+00 -4.4721471353e+01 1.0000100000e+04 1.0000000000e+04 0.0000e+00 1.0000e+00
      -24  1    1    2    0    0 +5.5745887017e+03 +3.5505792105e+03 -7.4592103032e+03 9.9663856508e+03 7.9829010000e+01 0.0000e+00 1.0000e+00
       24  1    1    2    0    0 -4.5105094226e+03 -2.8611239281e+03 +6.0364267221e+03 8.0607410097e+03 7.9829010000e+01 0.0000e+00 1.0000e+00
       22  1    1    2    0    0 -1.0813909950e+03 -7.0104115952e+02 +1.4492588268e+03 1.9393855569e+03 0.0000000000e+00 0.0000e+00 1.0000e+00
       22  1    1    2    0    0 +1.7311715919e+01 +1.1585877114e+01 -2.6475245697e+01 3.3687782523e+01 0.0000000000e+00 0.0000e+00 1.0000e+00
</event>
<event>
 6      1 +1.4834189e-01 1.05074200e+04 7.81653100e-03 6.90896800e-02
  1000022 -1    0    0    0    0 +0.0000000000e+00 +0.0000000000e+00 +4.4721471353e+01 1.0000100000e+04 1.0000000000e+04 0.0000e+00 1.0000e+00
  1000022 -1    0    0    0    0 -0.0000000000e+00 -0.0000000000e+00 -4.4721471353e+01 1.0000100000e+04 1.0000000000e+04 0.0000e+00 1.0000e+00
      -24  1    1    2    0    0 +3.9453189810e+03 +3.8387351374e+03 +7.5743158283e+03 9.3636564576e+03 7.9829010000e+01 0.0000e+00 -1.0000e+00
       24  1    1    2    0    0 -2.3765096766e+02 -1.0808800903e+03 -4.9853286005e+03 5.1073137438e+03 7.9829010000e+01 0.0000e+00 -1.0000e+00
       22  1    1    2    0    0 +1.6444806483e+01 +9.8487336534e+01 +8.1866829689e+01 1.2912151223e+02 0.0000000000e+00 0.0000e+00 -1.0000e+00
       22  1    1    2    0    0 -3.7241128199e+03 -2.8563423837e+03 -2.6708540575e+03 5.4001082864e+03 0.0000000000e+00 0.0000e+00 -1.0000e+00
</event>
<event>
 6      1 +1.4834189e-01 7.24490200e+03 7.81653100e-03 7.13902800e-02
  1000022 -1    0    0    0    0 +0.0000000000e+00 +0.0000000000e+00 +4.4721471353e+01 1.0000100000e+04 1.0000000000e+04 0.0000e+00 1.0000e+00
  1000022 -1    0    0    0    0 -0.0000000000e+00 -0.0000000000e+00 -4.4721471353e+01 1.0000100000e+04 1.0000000000e+04 0.0000e+00 1.0000e+00
      -24  1    1    2    0    0 +5.1104663630e+03 +1.2496792679e+03 +6.9389642016e+01 5.2621053118e+03 7.9829010000e+01 0.0000e+00 1.0000e+00
       24  1    1    2    0    0 +1.4064072354e+02 +5.5544453086e+01 -7.6895405509e+01 1.8748486235e+02 7.9829010000e+01 0.0000e+00 1.0000e+00
       22  1    1    2    0    0 -9.7601627836e+03 -2.0684424971e+03 -4.9765201963e+01 9.9770591108e+03 0.0000000000e+00 0.0000e+00 1.0000e+00
       22  1    1    2    0    0 +4.5090556970e+03 +7.6321877613e+02 +5.7270965455e+01 4.5735507150e+03 0.0000000000e+00 0.0000e+00 1.0000e+00
</event>
<event>
 6      1 +1.4834189e-01 1.00453400e+04 7.81653100e-03 6.93599500e-02
  1000022 -1    0    0    0    0 +0.0000000000e+00 +0.0000000000e+00 +4.4721471353e+01 1.0000100000e+04 1.0000000000e+04 0.0000e+00 1.0000e+00
  1000022 -1    0    0    0    0 -0.0000000000e+00 -0.0000000000e+00 -4.4721471353e+01 1.0000100000e+04 1.0000000000e+04 0.0000e+00 1.0000e+00
      -24  1    1    2    0    0 -3.1145237473e+03 +1.2967223671e+03 -9.3553076579e+03 9.9453457011e+03 7.9829010000e+01 0.0000e+00 1.0000e+00
       24  1    1    2    0    0 +3.1060610029e+03 -1.1878288794e+03 +9.2288334038e+03 9.8100097383e+03 7.9829010000e+01 0.0000e+00 1.0000e+00
       22  1    1    2    0    0 -4.2565105041e+01 -9.0147927841e+01 -7.7868819503e+00 9.9995362851e+01 0.0000000000e+00 0.0000e+00 1.0000e+00
       22  1    1    2    0    0 +5.1027849525e+01 -1.8745559840e+01 +1.3426113600e+02 1.4484919772e+02 0.0000000000e+00 0.0000e+00 1.0000e+00
</event>
<event>
 6      1 +1.4834189e-01 1.00132600e+04 7.81653100e-03 6.93792500e-02
  1000022 -1    0    0    0    0 +0.0000000000e+00 +0.0000000000e+00 +4.4721471353e+01 1.0000100000e+04 1.0000000000e+04 0.0000e+00 -1.0000e+00
  1000022 -1    0    0    0    0 -0.0000000000e+00 -0.0000000000e+00 -4.4721471353e+01 1.0000100000e+04 1.0000000000e+04 0.0000e+00 -1.0000e+00
      -24  1    1    2    0    0 -2.4861383482e+03 -1.0897780687e+01 -5.8537606877e+02 2.5553943846e+03 7.9829010000e+01 0.0000e+00 1.0000e+00
       24  1    1    2    0    0 +9.6528863137e+03 +8.3859724327e+00 +2.4533279235e+03 9.9600941301e+03 7.9829010000e+01 0.0000e+00 1.0000e+00
       22  1    1    2    0    0 +1.3646288952e+01 +1.9216444194e+01 +4.7654788987e+01 5.3164573195e+01 0.0000000000e+00 0.0000e+00 1.0000e+00
       22  1    1    2    0    0 -7.1803942544e+03 -1.6704635939e+01 -1.9156066438e+03 7.4315469122e+03 0.0000000000e+00 0.0000e+00 1.0000e+00
</event>
<event>
 6      1 +1.4834189e-01 9.19428100e+03 7.81653100e-03 6.98982800e-02
  1000022 -1    0    0    0    0 +0.0000000000e+00 +0.0000000000e+00 +4.4721471353e+01 1.0000100000e+04 1.0000000000e+04 0.0000e+00 -1.0000e+00
  1000022 -1    0    0    0    0 -0.0000000000e+00 -0.0000000000e+00 -4.4721471353e+01 1.0000100000e+04 1.0000000000e+04 0.0000e+00 -1.0000e+00
      -24  1    1    2    0    0 -5.4049560593e+03 +3.0452245014e+02 -7.4335233323e+03 9.1961908271e+03 7.9829010000e+01 0.0000e+00 -1.0000e+00
       24  1    1    2    0    0 +1.0094985660e+03 +1.2102770314e+03 +2.2504095994e+02 1.5940119046e+03 7.9829010000e+01 0.0000e+00 -1.0000e+00
       22  1    1    2    0    0 +4.4348424008e+03 -1.6122773657e+03 +7.5218306899e+03 8.8794820993e+03 0.0000000000e+00 0.0000e+00 -1.0000e+00
       22  1    1    2    0    0 -3.9384907541e+01 +9.7477884172e+01 -3.1334831757e+02 3.3051516904e+02 0.0000000000e+00 0.0000e+00 1.0000e+00
</event>
<event>
 6      1 +1.4834189e-01 1.00832800e+04 7.81653100e-03 6.93372100e-02
  1000022 -1    0    0    0    0 +0.0000000000e+00 +0.0000000000e+00 +4.4721471353e+01 1.0000100000e+04 1.0000000000e+04 0.0000e+00 -1.0000e+00
  1000022 -1    0    0    0    0 -0.0000000000e+00 -0.0000000000e+00 -4.4721471353e+01 1.0000100000e+04 1.0000000000e+04 0.0000e+00 -1.0000e+00
      -24  1    1    2    0    0 +9.0135312515e+03 -2.1077392997e+03 +3.5570561633e+03 9.9169214879e+03 7.9829010000e+01 0.0000e+00 1.0000e+00
       24  1    1    2    0    0 -7.7403784606e+03 +2.3829510392e+03 -2.8214293809e+03 8.5766398310e+03 7.9829010000e+01 0.0000e+00 1.0000e+00
       22  1    1    2    0    0 -4.4358367817e+01 +2.3420482063e+01 -2.4228473249e+01 5.5706397222e+01 0.0000000000e+00 0.0000e+00 1.0000e+00
       22  1    1    2    0    0 -1.2287944231e+03 -2.9863222159e+02 -7.1139830916e+02 1.4509322838e+03 0.0000000000e+00 0.0000e+00 1.0000e+00
</event>
<event>
 6      1 +1.4834189e-01 1.05735000e+04 7.81653100e-03 6.90521700e-02
  1000022 -1    0    0    0    0 +0.0000000000e+00 +0.0000000000e+00 +4.4721471353e+01 1.0000100000e+04 1.0000000000e+04 0.0000e+00 -1.0000e+00
  1000022 -1    0    0    0    0 -0.0000000000e+00 -0.0000000000e+00 -4.4721471353e+01 1.0000100000e+04 1.0000000000e+04 0.0000e+00 -1.0000e+00
      -24  1    1    2    0    0 +7.9761542294e+03 -3.8406152112e+03 -3.2383433510e+03 9.4266962304e+03 7.9829010000e+01 0.0000e+00 -1.0000e+00
       24  1    1    2    0    0 -6.1199979240e+03 +3.5653484553e+03 +8.4858344707e+02 7.1339015086e+03 7.9829010000e+01 0.0000e+00 -1.0000e+00
       22  1    1    2    0    0 -1.6889619753e+03 -4.3357378807e+01 +2.5392474974e+03 3.0499590603e+03 0.0000000000e+00 0.0000e+00 1.0000e+00
       22  1    1    2    0    0 -1.6719433004e+02 +3.1862413472e+02 -1.4948759346e+02 3.8964320067e+02 0.0000000000e+00 0.0000e+00 -1.0000e+00
</event>
<event>
 6      1 +1.4834189e-01 1.02093900e+04 7.81653100e-03 6.92623500e-02
  1000022 -1    0    0    0    0 +0.0000000000e+00 +0.0000000000e+00 +4.4721471353e+01 1.0000100000e+04 1.0000000000e+04 0.0000e+00 1.0000e+00
  1000022 -1    0    0    0    0 -0.0000000000e+00 -0.0000000000e+00 -4.4721471353e+01 1.0000100000e+04 1.0000000000e+04 0.0000e+00 1.0000e+00
      -24  1    1    2    0    0 -1.0966080167e+03 -3.6709351902e+03 -1.0605372829e+03 3.9761069292e+03 7.9829010000e+01 0.0000e+00 -1.0000e+00
       24  1    1    2    0    0 +1.6813519397e+03 +9.0611077496e+03 +3.3049849862e+03 9.7908077514e+03 7.9829010000e+01 0.0000e+00 -1.0000e+00
       22  1    1    2    0    0 -1.0840228692e+03 -5.1114012462e+03 -1.8693895890e+03 5.5494275125e+03 0.0000000000e+00 0.0000e+00 -1.0000e+00
       22  1    1    2    0    0 +4.9927894611e+02 -2.7877131316e+02 -3.7505811427e+02 6.8385780697e+02 0.0000000000e+00 0.0000e+00 1.0000e+00
</event>
<event>
 6      1 +1.4834189e-01 1.01249400e+04 7.81653100e-03 6.93123600e-02
  1000022 -1    0    0    0    0 +0.0000000000e+00 +0.0000000000e+00 +4.4721471353e+01 1.0000100000e+04 1.0000000000e+04 0.0000e+00 1.0000e+00
  1000022 -1    0    0    0    0 -0.0000000000e+00 -0.0000000000e+00 -4.4721471353e+01 1.0000100000e+04 1.0000000000e+04 0.0000e+00 1.0000e+00
      -24  1    1    2    0    0 +6.6687017321e+01 +1.4784967329e+02 +7.7207789324e+01 1.9657160970e+02 7.9829010000e+01 0.0000e+00 -1.0000e+00
       24  1    1    2    0    0 -8.1958173497e+03 -4.9207521857e+03 -1.7059607036e+03 9.7109164705e+03 7.9829010000e+01 0.0000e+00 -1.0000e+00
       22  1    1    2    0    0 +8.0585488577e+03 +4.9819727414e+03 +1.9790729304e+03 9.6786875015e+03 0.0000000000e+00 0.0000e+00 -1.0000e+00
       22  1    1    2    0    0 +7.0581474691e+01 -2.0907022899e+02 -3.5032001616e+02 4.1402441829e+02 0.0000000000e+00 0.0000e+00 -1.0000e+00
</event>
<event>
 6      1 +1.4834189e-01 1.00507800e+04 7.81653100e-03 6.93566900e-02
  1000022 -1    0    0    0    0 +0.0000000000e+00 +0.0000000000e+00 +4.4721471353e+01 1.0000100000e+04 1.0000000000e+04 0.0000e+00 -1.0000e+00
  1000022 -1    0    0    0    0 -0.0000000000e+00 -0.0000000000e+00 -4.4721471353e+01 1.0000100000e+04 1.0000000000e+04 0.0000e+00 -1.0000e+00
      -24  1    1    2    0    0 -5.7941910048e+03 -8.1595152725e+02 -7.3693294016e+03 9.4101973835e+03 7.9829010000e+01 0.0000e+00 -1.0000e+00
       24  1    1    2    0    0 +6.2046162747e+03 +1.0375404639e+03 +7.7078479863e+03 9.9494244347e+03 7.9829010000e+01 0.0000e+00 -1.0000e+00
       22  1    1    2    0    0 -2.9247277843e+02 -2.5445308563e+02 -1.4977302999e+02 4.1559434479e+02 0.0000000000e+00 0.0000e+00 1.0000e+00
       22  1    1    2    0    0 -1.1795249140e+02 +3.2864149020e+01 -1.8874555473e+02 2.2498383708e+02 0.0000000000e+00 0.0000e+00 1.0000e+00
</event>
<event>
 6      1 +1.4834189e-01 1.00479400e+04 7.81653100e-03 6.93583900e-02
  1000022 -1    0    0    0    0 +0.0000000000e+00 +0.0000000000e+00 +4.4721471353e+01 1.0000100000e+04 1.0000000000e+04 0.0000e+00 -1.0000e+00
  1000022 -1    0    0    0    0 -0.0000000000e+00 -0.0000000000e+00 -4.4721471353e+01 1.0000100000e+04 1.0000000000e+04 0.0000e+00 -1.0000e+00
      -24  1    1    2    0    0 -6.6126872303e+01 +9.2353267144e+03 +1.9833731377e+03 9.4464688619e+03 7.9829010000e+01 0.0000e+00 1.0000e+00
       24  1    1    2    0    0 +2.3134188930e+02 -9.5888767522e+03 -2.3579736297e+03 9.8775750439e+03 7.9829010000e+01 0.0000e+00 1.0000e+00
       22  1    1    2    0    0 -1.7213114253e+02 +4.2682910238e+02 +3.8724406285e+02 6.0147333863e+02 0.0000000000e+00 0.0000e+00 1.0000e+00
       22  1    1    2    0    0 +6.9161255319e+00 -7.3279064590e+01 -1.2643570789e+01 7.4682755585e+01 0.0000000000e+00 0.0000e+00 1.0000e+00
</event>
<event>
 6      1 +1.4834189e-01 1.00112800e+04 7.81653100e-03 6.93804500e-02
  1000022 -1    0    0    0    0 +0.0000000000e+00 +0.0000000000e+00 +4.4721471353e+01 1.0000100000e+04 1.0000000000e+04 0.0000e+00 -1.0000e+00
  1000022 -1    0    0    0    0 -0.0000000000e+00 -0.0000000000e+00 -4.4721471353e+01 1.0000100000e+04 1.0000000000e+04 0.0000e+00 -1.0000e+00
      -24  1    1    2    0    0 -4.7541939291e+03 +4.0778935035e+03 -7.6927613493e+03 9.9205103291e+03 7.9829010000e+01 0.0000e+00 1.0000e+00
       24  1    1    2    0    0 +3.5792512718e+02 -5.3546659218e+02 +6.8084176827e+02 9.4061312571e+02 7.9829010000e+01 0.0000e+00 -1.0000e+00
       22  1    1    2    0    0 +4.4265145517e+03 -3.5722635982e+03 +7.0655401428e+03 9.0706645733e+03 0.0000000000e+00 0.0000e+00 1.0000e+00
       22  1    1    2    0    0 -3.0245749741e+01 +2.9836686898e+01 -5.3620561709e+01 6.8411971909e+01 0.0000000000e+00 0.0000e+00 -1.0000e+00
</event>
<event>
 6      1 +1.4834189e-01 1.00449800e+04 7.81653100e-03 6.93601600e-02
  1000022 -1    0    0    0    0 +0.0000000000e+00 +0.0000000000e+00 +4.4721471353e+01 1.0000100000e+04 1.0000000000e+04 0.0000e+00 1.0000e+00
  1000022 -1    0    0    0    0 -0.0000000000e+00 -0.0000000000e+00 -4.4721471353e+01 1.0000100000e+04 1.0000000000e+04 0.0000e+00 1.0000e+00
      -24  1    1    2    0    0 -5.1713263818e+03 +1.7298697224e+03 -8.1672300189e+03 9.8206458370e+03 7.9829010000e+01 0.0000e+00 -1.0000e+00
       24  1    1    2    0    0 +3.0588655017e+03 -3.3359824878e+02 +4.6703215885e+03 5.5934088318e+03 7.9829010000e+01 0.0000e+00 -1.0000e+00
       22  1    1    2    0    0 +2.1845410602e+03 -1.4305036806e+03 +3.6052681104e+03 4.4515748418e+03 0.0000000000e+00 0.0000e+00 -1.0000e+00
       22  1    1    2    0    0 -7.2080180097e+01 +3.4232206995e+01 -1.0835968003e+02 1.3457048939e+02 0.0000000000e+00 0.0000e+00 1.0000e+00
</event>
<event>
 6      1 +1.4834189e-01 1.00002700e+04 7.81653100e-03 6.93870900e-02
  1000022 -1    0    0    0    0 +0.0000000000e+00 +0.0000000000e+00 +4.4721471353e+01 1.0000100000e+04 1.0000000000e+04 0.0000e+00 1.0000e+00
  1000022 -1    0    0    0    0 -0.0000000000e+00 -0.0000000000e+00 -4.4721471353e+01 1.0000100000e+04 1.0000000000e+04 0.0000e+00 1.0000e+00
      -24  1    1    2    0    0 -4.4000084810e+03 -1.7977614084e+03 -8.7408073651e+03 9.9498797369e+03 7.9829010000e+01 0.0000e+00 -1.0000e+00
       24  1    1    2    0    0 +4.2981391701e+03 +1.7462383475e+03 +8.5083780937e+03 9.6913476436e+03 7.9829010000e+01 0.0000e+00 -1.0000e+00
       22  1    1    2    0    0 -2.4948634198e+01 -2.1080957989e+00 -4.3729960996e+01 5.0390355278e+01 0.0000000000e+00 0.0000e+00 1.0000e+00
       22  1    1    2    0    0 +1.2681794510e+02 +5.3631156697e+01 +2.7615923238e+02 3.0858226422e+02 0.0000000000e+00 0.0000e+00 1.0000e+00
</event>
<event>
 6      1 +1.4834189e-01 1.00520600e+04 7.81653100e-03 6.93559200e-02
  1000022 -1    0    0    0    0 +0.0000000000e+00 +0.0000000000e+00 +4.4721471353e+01 1.0000100000e+04 1.0000000000e+04 0.0000e+00 -1.0000e+00
  1000022 -1    0    0    0    0 -0.0000000000e+00 -0.0000000000e+00 -4.4721471353e+01 1.0000100000e+04 1.0000000000e+04 0.0000e+00 -1.0000e+00
      -24  1    1    2    0    0 +7.7549466900e+01 -1.3009105480e+01 -2.9578981556e+01 1.1589108520e+02 7.9829010000e+01 0.0000e+00 -1.0000e+00
       24  1    1    2    0    0 -5.6219455817e+02 +4.6137175805e+02 +4.0226116279e+01 7.3274649889e+02 7.9829010000e+01 0.0000e+00 1.0000e+00
       22  1    1    2    0    0 +1.1978438905e+03 -9.4708874220e+03 -2.2923554559e+03 9.8177101241e+03 0.0000000000e+00 0.0000e+00 1.0000e+00
       22  1    1    2    0    0 -7.1319879923e+02 +9.0225247694e+03 +2.2817083212e+03 9.3338522918e+03 0.0000000000e+00 0.0000e+00 1.0000e+00
</event>
<event>
 6      1 +1.4834189e-01 1.00218800e+04 7.81653100e-03 6.93740600e-02
  1000022 -1    0    0    0    0 +0.0000000000e+00 +0.0000000000e+00 +4.4721471353e+01 1.0000100000e+04 1.0000000000e+04 0.0000e+00 1.0000e+00
  1000022 -1    0    0    0    0 -0.0000000000e+00 -0.0000000000e+00 -4.4721471353e+01 1.0000100000e+04 1.0000000000e+04 0.0000e+00 1.0000e+00
      -24  1    1    2    0    0 +8.7280335003e+03 +1.6683245907e+03 -4.5385775959e+03 9.9783232553e+03 7.9829010000e+01 0.0000e+00 1.0000e+00
       24  1    1    2    0    0 -8.3757423091e+03 -1.4386489210e+03 +4.3116960477e+03 9.5299457199e+03 7.9829010000e+01 0.0000e+00 1.0000e+00
       22  1    1    2    0    0 -2.4508061648e+02 -1.9058738439e+02 +1.1211560499e+02 3.3008781944e+02 0.0000000000e+00 0.0000e+00 -1.0000e+00
       22  1    1    2    0    0 -1.0721057474e+02 -3.9088285269e+01 +1.1476594321e+02 1.6184320531e+02 0.0000000000e+00 0.0000e+00 1.0000e+00
</event>
<event>
 6      1 +1.4834189e-01 1.02833000e+04 7.81653100e-03 6.92189800e-02
  1000022 -1    0    0    0    0 +0.0000000000e+00 +0.0000000000e+00 +4.4721471353e+01 1.0000100000e+04 1.0000000000e+04 0.0000e+00 -1.0000e+00
  1000022 -1    0    0    0    0 -0.0000000000e+00 -0.0000000000e+00 -4.4721471353e+01 1.0000100000e+04 1.0000000000e+04 0.0000e+00 -1.0000e+00
      -24  1    1    2    0    0 -2.2801992868e+03 -7.9162693866e+03 -1.1048231999e+03 8.3122582228e+03 7.9829010000e+01 0.0000e+00 -1.0000e+00
       24  1    1    2    0    0 +7.8527931118e+02 +3.7238115735e+03 +2.1951590029e+02 3.8128724255e+03 7.9829010000e+01 0.0000e+00 -1.0000e+00
       22  1    1    2    0    0 +2.2305131078e+03 +5.4484359959e+03 -4.4375967797e+02 5.9040296559e+03 0.0000000000e+00 0.0000e+00 -1.0000e+00
       22  1    1    2    0    0 -7.3559313216e+02 -1.2559781828e+03 +1.3290669775e+03 1.9710396958e+03 0.0000000000e+00 0.0000e+00 -1.0000e+00
</event>
<event>
 6      1 +1.4834189e-01 1.00086200e+04 7.81653100e-03 6.93820500e-02
  1000022 -1    0    0    0    0 +0.0000000000e+00 +0.0000000000e+00 +4.4721471353e+01 1.0000100000e+04 1.0000000000e+04 0.0000e+00 1.0000e+00
  1000022 -1    0    0    0    0 -0.0000000000e+00 -0.0000000000e+00 -4.4721471353e+01 1.0000100000e+04 1.0000000000e+04 0.0000e+00 1.0000e+00
      -24  1    1    2    0    0 -9.7951037212e+03 -6.8645919871e+02 -1.7439966628e+03 9.9731228896e+03 7.9829010000e+01 0.0000e+00 -1.0000e+00
       24  1    1    2    0    0 +9.7581000346e+03 +6.7951292620e+02 +1.7048029687e+03 9.9295004877e+03 7.9829010000e+01 0.0000e+00 -1.0000e+00
       22  1    1    2    0    0 +6.0563851004e+01 +4.8682589007e+00 +1.2719727807e+01 6.2076335818e+01 0.0000000000e+00 0.0000e+00 -1.0000e+00
       22  1    1    2    0    0 -2.3560164360e+01 +2.0780136104e+00 +2.6473966197e+01 3.5500286920e+01 0.0000000000e+00 0.0000e+00 -1.0000e+00
</event>
<event>
 6      1 +1.4834189e-01 9.91428000e+03 7.81653100e-03 6.94392800e-02
  1000022 -1    0    0    0    0 +0.0000000000e+00 +0.0000000000e+00 +4.4721471353e+01 1.0000100000e+04 1.0000000000e+04 0.0000e+00 -1.0000e+00
  1000022 -1    0    0    0    0 -0.0000000000e+00 -0.0000000000e+00 -4.4721471353e+01 1.0000100000e+04 1.0000000000e+04 0.0000e+00 -1.0000e+00
      -24  1    1    2    0    0 +9.1056342267e+03 +2.9976953320e+03 +2.1786087359e+03 9.8311474747e+03 7.9829010000e+01 0.0000e+00 1.0000e+00
       24  1    1    2    0    0 -2.0241020498e+01 +1.5193284725e+01 +1.4972342019e+02 1.7155263975e+02 7.9829010000e+01 0.0000e+00 -1.0000e+00
       22  1    1    2    0    0 +6.7860767041e+01 +1.9086622711e+01 +2.0061472327e+01 7.3292875109e+01 0.0000000000e+00 0.0000e+00 1.0000e+00
       22  1    1    2    0    0 -9.1532539733e+03 -3.0319752394e+03 -2.3483936284e+03 9.9242070104e+03 0.0000000000e+00 0.0000e+00 1.0000e+00
</event>
<event>
 6      1 +1.4834189e-01 1.01008700e+04 7.81653100e-03 6.93267100e-02
  1000022 -1    0    0    0    0 +0.0000000000e+00 +0.0000000000e+00 +4.4721471353e+01 1.0000100000e+04 1.0000000000e+04 0.0000e+00 1.0000e+00
  1000022 -1    0    0    0    0 -0.0000000000e+00 -0.0000000000e+00 -4.4721471353e+01 1.0000100000e+04 1.0000000000e+04 0.0000e+00 1.0000e+00
      -24  1    1    2    0    0 +2.7350343020e+02 -4.0687631509e+03 +2.4401799005e+03 4.7529452261e+03 7.9829010000e+01 0.0000e+00 -1.0000e+00
       24  1    1    2    0    0 -3.1285717130e+02 +8.4995211362e+03 -5.0646540053e+03 9.8993349281e+03 7.9829010000e+01 0.0000e+00 -1.0000e+00
       22  1    1    2    0    0 -3.6929704960e+01 -4.5103818672e+03 +2.4277263533e+03 5.1223787089e+03 0.0000000000e+00 0.0000e+00 -1.0000e+00
       22  1    1    2    0    0 +7.6283446064e+01 +7.9623881824e+01 +1.9674775156e+02 2.2554113692e+02 0.0000000000e+00 0.0000e+00 1.0000e+00
</event>
<event>
 6      1 +1.4834189e-01 1.00067400e+04 7.81653100e-03 6.93831900e-02
  1000022 -1    0    0    0    0 +0.0000000000e+00 +0.0000000000e+00 +4.4721471353e+01 1.0000100000e+04 1.0000000000e+04 0.0000e+00 -1.0000e+00
  1000022 -1    0    0    0    0 -0.0000000000e+00 -0.0000000000e+00 -4.4721471353e+01 1.0000100000e+04 1.0000000000e+04 0.0000e+00 -1.0000e+00
      -24  1    1    2    0    0 +9.7084192664e+03 -1.1576174139e+03 +2.0662409678e+03 9.9934582171e+03 7.9829010000e+01 0.0000e+00 -1.0000e+00
       24  1    1    2    0    0 -9.3693417803e+03 +1.0792284029e+03 -1.9930545549e+03 9.6399138208e+03 7.9829010000e+01 0.0000e+00 -1.0000e+00
       22  1    1    2    0    0 -3.0034337845e+02 +3.6995747260e+01 -5.7755203279e+01 3.0807546770e+02 0.0000000000e+00 0.0000e+00 1.0000e+00
       22  1    1    2    0    0 -3.8734107604e+01 +4.1393263751e+01 -1.5431209641e+01 5.8752494473e+01 0.0000000000e+00 0.0000e+00 -1.0000e+00
</event>
<event>
 6      1 +1.4834189e-01 1.00473600e+04 7.81653100e-03 6.93587400e-02
  1000022 -1    0    0    0    0 +0.0000000000e+00 +0.0000000000e+00 +4.4721471353e+01 1.0000100000e+04 1.0000000000e+04 0.0000e+00 -1.0000e+00
  1000022 -1    0    0    0    0 -0.0000000000e+00 -0.0000000000e+00 -4.4721471353e+01 1.0000100000e+04 1.0000000000e+04 0.0000e+00 -1.0000e+00
      -24  1    1    2    0    0 -6.4259063474e+02 +1.4703799091e+02 +2.2897675699e+02 7.0238587735e+02 7.9829010000e+01 0.0000e+00 -1.0000e+00
       24  1    1    2    0    0 +6.7514875492e+03 +2.6542075165e+03 +2.2975751614e+03 7.6100345572e+03 7.9829010000e+01 0.0000e+00 1.0000e+00
       22  1    1    2    0    0 -8.3118427214e+03 -2.2252606795e+03 -3.3959358212e+03 9.2504537521e+03 0.0000000000e+00 0.0000e+00 1.0000e+00
       22  1    1    2    0    0 +2.2029458069e+03 -5.7598482794e+02 +8.6938390282e+02 2.4373258134e+03 0.0000000000e+00 0.0000e+00 -1.0000e+00
</event>
<event>
 6      1 +1.4834189e-01 1.00374700e+04 7.81653100e-03 6.93646800e-02
  1000022 -1    0    0    0    0 +0.0000000000e+00 +0.0000000000e+00 +4.4721471353e+01 1.0000100000e+04 1.0000000000e+04 0.0000e+00 -1.0000e+00
  1000022 -1    0    0    0    0 -0.0000000000e+00 -0.0000000000e+00 -4.4721471353e+01 1.0000100000e+04 1.0000000000e+04 0.0000e+00 -1.0000e+00
      -24  1    1    2    0    0 -3.9084196477e+02 -9.9102249022e+03 -9.4033062767e+02 9.9627260031e+03 7.9829010000e+01 0.0000e+00 -1.0000e+00
       24  1    1    2    0    0 -1.1299757301e+01 +1.0143826881e+03 +7.7575533023e+01 1.0205344465e+03 7.9829010000e+01 0.0000e+00 0.0000e+00
       22  1    1    2    0    0 +8.9022283747e+01 +8.8165970738e+01 -8.7200717591e+01 1.5265048493e+02 0.0000000000e+00 0.0000e+00 1.0000e+00
       22  1    1    2    0    0 +3.1311943832e+02 +8.8076762434e+03 +9.4995581224e+02 8.8642890654e+03 0.0000000000e+00 0.0000e+00 -1.0000e+00
</event>
<event>
 6      1 +1.4834189e-01 1.00655100e+04 7.81653100e-03 6.93478500e-02
  1000022 -1    0    0    0    0 +0.0000000000e+00 +0.0000000000e+00 +4.4721471353e+01 1.0000100000e+04 1.0000000000e+04 0.0000e+00 1.0000e+00
  1000022 -1    0    0    0    0 -0.0000000000e+00 -0.0000000000e+00 -4.4721471353e+01 1.0000100000e+04 1.0000000000e+04 0.0000e+00 1.0000e+00
      -24  1    1    2    0    0 +4.0416846043e+03 +6.0035095106e+03 +9.4449072136e+02 7.2990257075e+03 7.9829010000e+01 0.0000e+00 1.0000e+00
       24  1    1    2    0    0 -5.2460605011e+03 -8.2289010996e+03 -1.1875482079e+03 9.8312058012e+03 7.9829010000e+01 0.0000e+00 1.0000e+00
       22  1    1    2    0    0 -7.9361366930e+01 -2.9774388935e+01 -2.1843405910e+02 2.3430360426e+02 0.0000000000e+00 0.0000e+00 -1.0000e+00
       22  1    1    2    0    0 +1.2837372637e+03 +2.2551659779e+03 +4.6149154559e+02 2.6356648871e+03 0.0000000000e+00 0.0000e+00 1.0000e+00
</event>
<event>
 6      1 +1.4834189e-01 1.00921300e+04 7.81653100e-03 6.93319200e-02
  1000022 -1    0    0    0    0 +0.0000000000e+00 +0.0000000000e+00 +4.4721471353e+01 1.0000100000e+04 1.0000000000e+04 0.0000e+00 1.0000e+00
  1000022 -1    0    0    0    0 -0.0000000000e+00 -0.0000000000e+00 -4.4721471353e+01 1.0000100000e+04 1.0000000000e+04 0.0000e+00 1.0000e+00
      -24  1    1    2    0    0 +6.7203919286e+03 -6.0725922689e+03 -2.8335300150e+03 9.4908013125e+03 7.9829010000e+01 0.0000e+00 -1.0000e+00
       24  1    1    2    0    0 -6.7793268854e+03 +6.2860256645e+03 +2.5258707858e+03 9.5843511815e+03 7.9829010000e+01 0.0000e+00 -1.0000e+00
       22  1    1    2    0    0 +2.8464979358e+02 -2.6909571609e+02 -1.4377957107e+02 4.1726559223e+02 0.0000000000e+00 0.0000e+00 1.0000e+00
       22  1    1    2    0    0 -2.2571483676e+02 +5.5662320437e+01 +4.5143880032e+02 5.0778191370e+02 0.0000000000e+00 0.0000e+00 1.0000e+00
</event>
<event>
 6      1 +1.4834189e-01 1.02560500e+04 7.81653100e-03 6.92349300e-02
  1000022 -1    0    0    0    0 +0.0000000000e+00 +0.0000000000e+00 +4.4721471353e+01 1.0000100000e+04 1.0000000000e+04 0.0000e+00 -1.0000e+00
  1000022 -1    0    0    0    0 -0.0000000000e+00 -0.0000000000e+00 -4.4721471353e+01 1.0000100000e+04 1.0000000000e+04 0.0000e+00 -1.0000e+00
      -24  1    1    2    0    0 -6.3334501149e+03 -3.4493416268e+03 +6.3488317359e+03 9.6085683168e+03 7.9829010000e+01 0.0000e+00 1.0000e+00
       24  1    1    2    0    0 +5.9717002443e+03 +3.6264606261e+03 -6.7918830013e+03 9.7441504430e+03 7.9829010000e+01 0.0000e+00 1.0000e+00
       22  1    1    2    0    0 +3.9460540908e+02 -1.5384181394e+02 +3.6272972451e+02 5.5763212392e+02 0.0000000000e+00 0.0000e+00 -1.0000e+00
       22  1    1    2    0    0 -3.2855538419e+01 -2.3277185348e+01 +8.0321540977e+01 8.9849116342e+01 0.0000000000e+00 0.0000e+00 1.0000e+00
</event>
<event>
 6      1 +1.4834189e-01 1.00232000e+04 7.81653100e-03 6.93732700e-02
  1000022 -1    0    0    0    0 +0.0000000000e+00 +0.0000000000e+00 +4.4721471353e+01 1.0000100000e+04 1.0000000000e+04 0.0000e+00 -1.0000e+00
  1000022 -1    0    0    0    0 -0.0000000000e+00 -0.0000000000e+00 -4.4721471353e+01 1.0000100000e+04 1.0000000000e+04 0.0000e+00 -1.0000e+00
      -24  1    1    2    0    0 -1.0726962809e+02 -2.5484889687e+01 -3.4177123458e+02 3.6788109538e+02 7.9829010000e+01 0.0000e+00 -1.0000e+00
       24  1    1    2    0    0 +5.4974206550e+03 +3.7778562104e+03 +7.3933696546e+03 9.9580178211e+03 7.9829010000e+01 0.0000e+00 1.0000e+00
       22  1    1    2    0    0 +1.1024967473e+01 +7.0328167460e+00 +1.3762107693e+01 1.8984362705e+01 0.0000000000e+00 0.0000e+00 -1.0000e+00
       22  1    1    2    0    0 -5.4011759944e+03 -3.7594041375e+03 -7.0653605278e+03 9.6553167208e+03 0.0000000000e+00 0.0000e+00 1.0000e+00
</event>
<event>
 6      1 +1.4834189e-01 1.00336500e+04 7.81653100e-03 6.93669700e-02
  1000022 -1    0    0    0    0 +0.0000000000e+00 +0.0000000000e+00 +4.4721471353e+01 1.0000100000e+04 1.0000000000e+04 0.0000e+00 -1.0000e+00
  1000022 -1    0    0    0    0 -0.0000000000e+00 -0.0000000000e+00 -4.4721471353e+01 1.0000100000e+04 1.0000000000e+04 0.0000e+00 -1.0000e+00
      -24  1    1    2    0    0 -7.7671595694e+03 -4.5326412830e+03 +4.2955921221e+03 9.9665485063e+03 7.9829010000e+01 0.0000e+00 1.0000e+00
       24  1    1    2    0    0 +7.6470052887e+03 +4.5671682349e+03 -4.2983143115e+03 9.8902777596e+03 7.9829010000e+01 0.0000e+00 1.0000e+00
       22  1    1    2    0    0 +9.2830978955e+01 -5.0395199801e+01 +1.9783689919e+01 1.0746469748e+02 0.0000000000e+00 0.0000e+00 1.0000e+00
       22  1    1    2    0    0 +2.7323301742e+01 +1.5868247970e+01 -1.7061500560e+01 3.5909036649e+01 0.0000000000e+00 0.0000e+00 1.0000e+00
</event>
<event>
 6      1 +1.4834189e-01 1.00365400e+04 7.81653100e-03 6.93652400e-02
  1000022 -1    0    0    0    0 +0.0000000000e+00 +0.0000000000e+00 +4.4721471353e+01 1.0000100000e+04 1.0000000000e+04 0.0000e+00 1.0000e+00
  1000022 -1    0    0    0    0 -0.0000000000e+00 -0.0000000000e+00 -4.4721471353e+01 1.0000100000e+04 1.0000000000e+04 0.0000e+00 1.0000e+00
      -24  1    1    2    0    0 -1.1495360611e+03 +1.4302934670e+03 +1.0659909591e+03 2.1236482649e+03 7.9829010000e+01 0.0000e+00 -1.0000e+00
       24  1    1    2    0    0 +4.3728727161e+03 -6.8809287613e+03 -5.7270333534e+03 9.9636579684e+03 7.9829010000e+01 0.0000e+00 -1.0000e+00
       22  1    1    2    0    0 -2.2017391552e+02 +2.0775531960e+02 +4.7184931851e+02 5.6060735393e+02 0.0000000000e+00 0.0000e+00 -1.0000e+00
       22  1    1    2    0    0 -3.0031627395e+03 +5.2428799747e+03 +4.1891930758e+03 7.3522864128e+03 0.0000000000e+00 0.0000e+00 -1.0000e+00
</event>
<event>
 6      1 +1.4834189e-01 1.01934800e+04 7.81653100e-03 6.92717400e-02
  1000022 -1    0    0    0    0 +0.0000000000e+00 +0.0000000000e+00 +4.4721471353e+01 1.0000100000e+04 1.0000000000e+04 0.0000e+00 1.0000e+00
  1000022 -1    0    0    0    0 -0.0000000000e+00 -0.0000000000e+00 -4.4721471353e+01 1.0000100000e+04 1.0000000000e+04 0.0000e+00 1.0000e+00
      -24  1    1    2    0    0 -2.2540463258e+03 -8.9998748798e+01 +7.4327204724e+03 7.7679167674e+03 7.9829010000e+01 0.0000e+00 1.0000e+00
       24  1    1    2    0    0 +2.0795185751e+03 -1.1441543172e+03 -7.7269110565e+03 8.0836262749e+03 7.9829010000e+01 0.0000e+00 1.0000e+00
       22  1    1    2    0    0 -3.2059998354e+02 +1.4297372515e+03 +1.9329842112e+03 2.4255640413e+03 0.0000000000e+00 0.0000e+00 -1.0000e+00
       22  1    1    2    0    0 +4.9512773429e+02 -1.9558418548e+02 -1.6387936270e+03 1.7230929165e+03 0.0000000000e+00 0.0000e+00 -1.0000e+00
</event>
<event>
 6      1 +1.4834189e-01 6.89312800e+03 7.81653100e-03 7.17101200e-02
  1000022 -1    0    0    0    0 +0.0000000000e+00 +0.0000000000e+00 +4.4721471353e+01 1.0000100000e+04 1.0000000000e+04 0.0000e+00 1.0000e+00
  1000022 -1    0    0    0    0 -0.0000000000e+00 -0.0000000000e+00 -4.4721471353e+01 1.0000100000e+04 1.0000000000e+04 0.0000e+00 1.0000e+00
      -24  1    1    2    0    0 +4.9817378890e+02 -4.8477604965e+03 +1.7577538271e+03 5.1812189823e+03 7.9829010000e+01 0.0000e+00 -1.0000e+00
       24  1    1    2    0    0 -6.5793848876e+03 +5.2596419695e+03 -4.5594499585e+01 8.4238109354e+03 7.9829010000e+01 0.0000e+00 -1.0000e+00
       22  1    1    2    0    0 +6.0730838004e+03 -3.5054880531e+02 -1.7402553737e+03 6.3272205649e+03 0.0000000000e+00 0.0000e+00 -1.0000e+00
       22  1    1    2    0    0 +8.1272982582e+00 -6.1332667669e+01 +2.8096046124e+01 6.7949517351e+01 0.0000000000e+00 0.0000e+00 1.0000e+00
</event>
<event>
 6      1 +1.4834189e-01 1.00031100e+04 7.81653100e-03 6.93853700e-02
  1000022 -1    0    0    0    0 +0.0000000000e+00 +0.0000000000e+00 +4.4721471353e+01 1.0000100000e+04 1.0000000000e+04 0.0000e+00 1.0000e+00
  1000022 -1    0    0    0    0 -0.0000000000e+00 -0.0000000000e+00 -4.4721471353e+01 1.0000100000e+04 1.0000000000e+04 0.0000e+00 1.0000e+00
      -24  1    1    2    0    0 +6.4768276716e+03 +5.6448047212e+03 +3.3004783315e+03 9.2039473551e+03 7.9829010000e+01 0.0000e+00 1.0000e+00
       24  1    1    2    0    0 -7.0409950430e+03 -6.1662138985e+03 -3.4698830286e+03 9.9821974506e+03 7.9829010000e+01 0.0000e+00 1.0000e+00
       22  1    1    2    0    0 +5.6925577261e+02 +5.3528315466e+02 +1.6759391932e+02 7.9916701140e+02 0.0000000000e+00 0.0000e+00 -1.0000e+00
       22  1    1    2    0    0 -5.0884011733e+00 -1.3873977356e+01 +1.8107777866e+00 1.4888182911e+01 0.0000000000e+00 0.0000e+00 -1.0000e+00
</event>
<event>
 6      1 +1.4834189e-01 1.00815000e+04 7.81653100e-03 6.93382800e-02
  1000022 -1    0    0    0    0 +0.0000000000e+00 +0.0000000000e+00 +4.4721471353e+01 1.0000100000e+04 1.0000000000e+04 0.0000e+00 1.0000e+00
  1000022 -1    0    0    0    0 -0.0000000000e+00 -0.0000000000e+00 -4.4721471353e+01 1.0000100000e+04 1.0000000000e+04 0.0000e+00 1.0000e+00
      -24  1    1    2    0    0 +1.6112250851e+02 +9.7470723000e+02 +7.5988589269e+02 1.2489250929e+03 7.9829010000e+01 0.0000e+00 -1.0000e+00
       24  1    1    2    0    0 -1.4953154527e+03 -2.0751821065e+03 -1.3838359082e+03 2.9092479389e+03 7.9829010000e+01 0.0000e+00 -1.0000e+00
       22  1    1    2    0    0 +2.2750095255e+03 +6.7698417625e+03 +4.9151403894e+03 8.6697768643e+03 0.0000000000e+00 0.0000e+00 -1.0000e+00
       22  1    1    2    0    0 -9.4081658131e+02 -5.6693668860e+03 -4.2911903739e+03 7.1722501039e+03 0.0000000000e+00 0.0000e+00 -1.0000e+00
</event>
<event>
 6      1 +1.4834189e-01 9.74632400e+03 7.81653100e-03 6.95427600e-02
  1000022 -1    0    0    0    0 +0.0000000000e+00 +0.0000000000e+00 +4.4721471353e+01 1.0000100000e+04 1.0000000000e+04 0.0000e+00 1.0000e+00
  1000022 -1    0    0    0    0 -0.0000000000e+00 -0.0000000000e+00 -4.4721471353e+01 1.0000100000e+04 1.0000000000e+04 0.0000e+00 1.0000e+00
      -24  1    1    2    0    0 -1.2423199395e+01 -4.7666407211e+02 +7.8188161652e+01 4.8974384426e+02 7.9829010000e+01 0.0000e+00 1.0000e+00
       24  1    1    2    0    0 -1.6253409441e+03 +1.5143872530e+03 -9.5648264071e+03 9.8197443350e+03 7.9829010000e+01 0.0000e+00 -1.0000e+00
       22  1    1    2    0    0 +8.5171352533e-01 -1.1540722015e+01 +2.5561687567e+00 1.1851062369e+01 0.0000000000e+00 0.0000e+00 -1.0000e+00
       22  1    1    2    0    0 +1.6369124300e+03 -1.0261824588e+03 +9.4840820767e+03 9.6788607584e+03 0.0000000000e+00 0.0000e+00 -1.0000e+00
</event>
<event>
 6      1 +1.4834189e-01 1.00450100e+04 7.81653100e-03 6.93601500e-02
  1000022 -1    0    0    0    0 +0.0000000000e+00 +0.0000000000e+00 +4.4721471353e+01 1.0000100000e+04 1.0000000000e+04 0.0000e+00 -1.0000e+00
  1000022 -1    0    0    0    0 -0.0000000000e+00 -0.0000000000e+00 -4.4721471353e+01 1.0000100000e+04 1.0000000000e+04 0.0000e+00 -1.0000e+00
      -24  1    1    2    0    0 -8.0416690607e+03 -4.5814553468e+03 -3.6662352518e+03 9.9551910061e+03 7.9829010000e+01 0.0000e+00 -1.0000e+00
       24  1    1    2    0    0 +1.6328018030e+03 +9.0984691462e+02 +1.0970168211e+03 2.1687972963e+03 7.9829010000e+01 0.0000e+00 -1.0000e+00
       22  1    1    2    0    0 +9.0945443170e+00 -2.9246497646e+01 +6.3177616518e+01 7.0210252740e+01 0.0000000000e+00 0.0000e+00 1.0000e+00
       22  1    1    2    0    0 +6.3997727134e+03 +3.7008549298e+03 +2.5060408142e+03 7.8060014448e+03 0.0000000000e+00 0.0000e+00 -1.0000e+00
</event>
<event>
 6      1 +1.4834189e-01 1.00797800e+04 7.81653100e-03 6.93393100e-02
  1000022 -1    0    0    0    0 +0.0000000000e+00 +0.0000000000e+00 +4.4721471353e+01 1.0000100000e+04 1.0000000000e+04 0.0000e+00 1.0000e+00
  1000022 -1    0    0    0    0 -0.0000000000e+00 -0.0000000000e+00 -4.4721471353e+01 1.0000100000e+04 1.0000000000e+04 0.0000e+00 1.0000e+00
      -24  1    1    2    0    0 +1.7604177881e+03 +9.7626278558e+03 +1.9516012523e+01 9.9204196980e+03 7.9829010000e+01 0.0000e+00 -1.0000e+00
       24  1    1    2    0    0 -1.7545977529e+03 -9.4265492689e+03 -3.2122486435e+02 9.5941650224e+03 7.9829010000e+01 0.0000e+00 -1.0000e+00
       22  1    1    2    0    0 +2.5920971050e+01 -2.4793298403e+02 +3.0242920841e+02 3.9192612494e+02 0.0000000000e+00 0.0000e+00 -1.0000e+00
       22  1    1    2    0    0 -3.1741006298e+01 -8.8145602860e+01 -7.2035658046e-01 9.3689154645e+01 0.0000000000e+00 0.0000e+00 1.0000e+00
</event>
<event>
 6      1 +1.4834189e-01 1.00231700e+04 7.81653100e-03 6.93732800e-02
  1000022 -1    0    0    0    0 +0.0000000000e+00 +0.0000000000e+00 +4.4721471353e+01 1.0000100000e+04 1.0000000000e+04 0.0000e+00 1.0000e+00
  1000022 -1    0    0    0    0 -0.0000000000e+00 -0.0000000000e+00 -4.4721471353e+01 1.0000100000e+04 1.0000000000e+04 0.0000e+00 1.0000e+00
      -24  1    1    2    0    0 -5.0775896883e+03 -8.4397184441e+03 -1.0139969104e+03 9.9017840243e+03 7.9829010000e+01 0.0000e+00 -1.0000e+00
       24  1    1    2    0    0 +5.1786994926e+03 +8.4402652646e+03 +9.6962421764e+02 9.9500527620e+03 7.9829010000e+01 0.0000e+00 -1.0000e+00
       22  1    1    2    0    0 +7.3725330352e+00 +2.5732205867e+01 -3.3365509743e+00 2.6974677654e+01 0.0000000000e+00 0.0000e+00 -1.0000e+00
       22  1    1    2    0    0 -1.0848233741e+02 -2.6279026314e+01 +4.7709243737e+01 1.2138853608e+02 0.0000000000e+00 0.0000e+00 -1.0000e+00
</event>
<event>
 6      1 +1.4834189e-01 1.00161600e+04 7.81653100e-03 6.93775100e-02
  1000022 -1    0    0    0    0 +0.0000000000e+00 +0.0000000000e+00 +4.4721471353e+01 1.0000100000e+04 1.0000000000e+04 0.0000e+00 1.0000e+00
  1000022 -1    0    0    0    0 -0.0000000000e+00 -0.0000000000e+00 -4.4721471353e+01 1.0000100000e+04 1.0000000000e+04 0.0000e+00 1.0000e+00
      -24  1    1    2    0    0 -2.2300689587e+03 -8.0816305552e+03 -4.3611396829e+03 9.4504958598e+03 7.9829010000e+01 0.0000e+00 -1.0000e+00
       24  1    1    2    0    0 +2.3831745026e+03 +8.5368375008e+03 +4.5914093971e+03 9.9822105842e+03 7.9829010000e+01 0.0000e+00 -1.0000e+00
       22  1    1    2    0    0 -3.2481360575e+01 +7.5314799059e+00 +6.3662449050e+00 3.3945412776e+01 0.0000000000e+00 0.0000e+00 -1.0000e+00
       22  1    1    2    0    0 -1.2062418333e+02 -4.6273842545e+02 -2.3663595919e+02 5.3354814326e+02 0.0000000000e+00 0.0000e+00 -1.0000e+00
</event>
<event>
 6      1 +1.4834189e-01 1.00915300e+04 7.81653100e-03 6.93322800e-02
  1000022 -1    0    0    0    0 +0.0000000000e+00 +0.0000000000e+00 +4.4721471353e+01 1.0000100000e+04 1.0000000000e+04 0.0000e+00 1.0000e+00
  1000022 -1    0    0    0    0 -0.0000000000e+00 -0.0000000000e+00 -4.4721471353e+01 1.0000100000e+04 1.0000000000e+04 0.0000e+00 1.0000e+00
      -24  1    1    2    0    0 +6.9758635471e+03 +5.5701479606e+03 -3.6454584117e+03 9.6428709539e+03 7.9829010000e+01 0.0000e+00 -1.0000e+00
       24  1    1    2    0    0 -5.5352836441e+03 -3.1425566086e+03 +2.1457606504e+03 6.7175656676e+03 7.9829010000e+01 0.0000e+00 -1.0000e+00
       22  1    1    2    0    0 +1.5081740627e+02 +9.1465310842e-01 -2.1886467916e+02 2.6579780738e+02 0.0000000000e+00 0.0000e+00 -1.0000e+00
       22  1    1    2    0    0 -1.5913973093e+03 -2.4285060051e+03 +1.7185624405e+03 3.3739655711e+03 0.0000000000e+00 0.0000e+00 -1.0000e+00
</event>
<event>
 6      1 +1.4834189e-01 1.00536000e+04 7.81653100e-03 6.93549900e-02
  1000022 -1    0    0    0    0 +0.0000000000e+00 +0.0000000000e+00 +4.4721471353e+01 1.0000100000e+04 1.0000000000e+04 0.0000e+00 1.0000e+00
  1000022 -1    0    0    0    0 -0.0000000000e+00 -0.0000000000e+00 -4.4721471353e+01 1.0000100000e+04 1.0000000000e+04 0.0000e+00 1.0000e+00
      -24  1    1    2    0    0 +5.9090683197e+03 -5.9357510511e+03 +5.3645401341e+03 9.9466020564e+03 7.9829010000e+01 0.0000e+00 1.0000e+00
       24  1    1    2    0    0 -4.1792570409e+03 +3.9517355951e+03 -3.2365515430e+03 6.6003062193e+03 7.9829010000e+01 0.0000e+00 1.0000e+00
       22  1    1    2    0    0 -2.8178726895e+01 +2.0588212081e+02 -1.2978711379e+01 2.0820647268e+02 0.0000000000e+00 0.0000e+00 1.0000e+00
       22  1    1    2    0    0 -1.7016325519e+03 +1.7781333352e+03 -2.1150098797e+03 3.2450852516e+03 0.0000000000e+00 0.0000e+00 -1.0000e+00
</event>
<event>
 6      1 +1.4834189e-01 1.01457800e+04 7.81653100e-03 6.92999700e-02
  1000022 -1    0    0    0    0 +0.0000000000e+00 +0.0000000000e+00 +4.4721471353e+01 1.0000100000e+04 1.0000000000e+04 0.0000e+00 1.0000e+00
  1000022 -1    0    0    0    0 -0.0000000000e+00 -0.0000000000e+00 -4.4721471353e+01 1.0000100000e+04 1.0000000000e+04 0.0000e+00 1.0000e+00
      -24  1    1    2    0    0 +3.6320079162e+03 -3.6063696255e+03 +3.6490594942e+03 6.2864450401e+03 7.9829010000e+01 0.0000e+00 1.0000e+00
       24  1    1    2    0    0 -4.2569756464e+03 +6.8053102015e+03 -5.6341207775e+03 9.8073328789e+03 7.9829010000e+01 0.0000e+00 1.0000e+00
       22  1    1    2    0    0 -1.7101804345e+01 +2.6002375919e+01 -3.5330738464e+01 4.7083503966e+01 0.0000000000e+00 0.0000e+00 -1.0000e+00
       22  1    1    2    0    0 +6.4206953446e+02 -3.2249429519e+03 +2.0203920218e+03 3.8593385770e+03 0.0000000000e+00 0.0000e+00 1.0000e+00
</event>
<event>
 6      1 +1.4834189e-01 5.51987600e+03 7.81653100e-03 7.31739600e-02
  1000022 -1    0    0    0    0 +0.0000000000e+00 +0.0000000000e+00 +4.4721471353e+01 1.0000100000e+04 1.0000000000e+04 0.0000e+00 -1.0000e+00
  1000022 -1    0    0    0    0 -0.0000000000e+00 -0.0000000000e+00 -4.4721471353e+01 1.0000100000e+04 1.0000000000e+04 0.0000e+00 -1.0000e+00
      -24  1    1    2    0    0 -1.6928047723e+03 -4.6084517535e+03 -5.4408161039e+03 7.3288654039e+03 7.9829010000e+01 0.0000e+00 1.0000e+00
       24  1    1    2    0    0 +5.6563518420e+03 +1.5398119292e+03 +3.7523229426e+03 6.9607210168e+03 7.9829010000e+01 0.0000e+00 1.0000e+00
       22  1    1    2    0    0 -2.4937462252e+01 -2.1153816503e+02 -1.5511194912e+02 2.6349570973e+02 0.0000000000e+00 0.0000e+00 -1.0000e+00
       22  1    1    2    0    0 -3.9386096074e+03 +3.2801779893e+03 +1.8436051105e+03 5.4471178695e+03 0.0000000000e+00 0.0000e+00 1.0000e+00
</event>
<event>
 6      1 +1.4834189e-01 1.01763900e+04 7.81653100e-03 6.92818400e-02
  1000022 -1    0    0    0    0 +0.0000000000e+00 +0.0000000000e+00 +4.4721471353e+01 1.0000100000e+04 1.0000000000e+04 0.0000e+00 1.0000e+00
  1000022 -1    0    0    0    0 -0.0000000000e+00 -0.0000000000e+00 -4.4721471353e+01 1.0000100000e+04 1.0000000000e+04 0.0000e+00 1.0000e+00
      -24  1    1    2    0    0 +2.0117648633e+03 -8.8674081776e+03 -3.7179040580e+03 9.8238133588e+03 7.9829010000e+01 0.0000e+00 -1.0000e+00
       24  1    1    2    0    0 -1.2259012242e+03 +8.5163960481e+03 +3.3316699757e+03 9.2270381465e+03 7.9829010000e+01 0.0000e+00 -1.0000e+00
       22  1    1    2    0    0 -7.8070802026e+02 +3.3387130738e+02 +3.8126032101e+02 9.3077091444e+02 0.0000000000e+00 0.0000e+00 -1.0000e+00
       22  1    1    2    0    0 -5.1556188661e+00 +1.7140822107e+01 +4.9737612359e+00 1.8577580284e+01 0.0000000000e+00 0.0000e+00 -1.0000e+00
</event>
<event>
 6      1 +1.4834189e-01 1.00015300e+04 7.81653100e-03 6.93863300e-02
  1000022 -1    0    0    0    0 +0.0000000000e+00 +0.0000000000e+00 +4.4721471353e+01 1.0000100000e+04 1.0000000000e+04 0.0000e+00 1.0000e+00
  1000022 -1    0    0    0    0 -0.0000000000e+00 -0.0000000000e+00 -4.4721471353e+01 1.0000100000e+04 1.0000000000e+04 0.0000e+00 1.0000e+00
      -24  1    1    2    0    0 -8.3422346638e+03 -3.0434425515e+03 -4.5508505734e+03 9.9785788248e+03 7.9829010000e+01 0.0000e+00 1.0000e+00
       24  1    1    2    0    0 +8.0847925478e+03 +2.9572934607e+03 +4.4149975979e+03 9.6751243721e+03 7.9829010000e+01 0.0000e+00 1.0000e+00
       22  1    1    2    0    0 +2.6818117576e+02 +9.9166260095e+01 +1.5141155100e+02 3.2354373422e+02 0.0000000000e+00 0.0000e+00 1.0000e+00
       22  1    1    2    0    0 -1.0739059795e+01 -1.3017169342e+01 -1.5558575454e+01 2.2953068925e+01 0.0000000000e+00 0.0000e+00 -1.0000e+00
</event>
<event>
 6      1 +1.4834189e-01 1.07348800e+04 7.81653100e-03 6.89617200e-02
  1000022 -1    0    0    0    0 +0.0000000000e+00 +0.0000000000e+00 +4.4721471353e+01 1.0000100000e+04 1.0000000000e+04 0.0000e+00 -1.0000e+00
  1000022 -1    0    0    0    0 -0.0000000000e+00 -0.0000000000e+00 -4.4721471353e+01 1.0000100000e+04 1.0000000000e+04 0.0000e+00 -1.0000e+00
      -24  1    1    2    0    0 +6.7690374256e+03 -3.9636722848e+03 -4.5044661761e+03 9.0458362716e+03 7.9829010000e+01 0.0000e+00 -1.0000e+00
       24  1    1    2    0    0 -4.0484384233e+03 +5.0805450574e+03 +4.1148656227e+03 7.6902720050e+03 7.9829010000e+01 0.0000e+00 -1.0000e+00
       22  1    1    2    0    0 -2.8217801296e+03 -1.0034560109e+03 +5.4794780845e+02 3.0446040574e+03 0.0000000000e+00 0.0000e+00 1.0000e+00
       22  1    1    2    0    0 +1.0118112725e+02 -1.1341676175e+02 -1.5834725500e+02 2.1948766599e+02 0.0000000000e+00 0.0000e+00 -1.0000e+00
</event>
<event>
 6      1 +1.4834189e-01 1.04082600e+04 7.81653100e-03 6.91464800e-02
  1000022 -1    0    0    0    0 +0.0000000000e+00 +0.0000000000e+00 +4.4721471353e+01 1.0000100000e+04 1.0000000000e+04 0.0000e+00 -1.0000e+00
  1000022 -1    0    0    0    0 -0.0000000000e+00 -0.0000000000e+00 -4.4721471353e+01 1.0000100000e+04 1.0000000000e+04 0.0000e+00 -1.0000e+00
      -24  1    1    2    0    0 -1.2916735083e+03 -1.0418161751e+03 +9.7407285126e+02 1.9258743430e+03 7.9829010000e+01 0.0000e+00 -1.0000e+00
       24  1    1    2    0    0 -5.4954465777e+02 +8.6938705722e+03 -3.2516899650e+03 9.2986689991e+03 7.9829010000e+01 0.0000e+00 -1.0000e+00
       22  1    1    2    0    0 +1.8567168794e+03 -7.9323696609e+03 +2.3624135112e+03 8.4823866692e+03 0.0000000000e+00 0.0000e+00 -1.0000e+00
       22  1    1    2    0    0 -1.5498713382e+01 +2.8031526379e+02 -8.4796397483e+01 2.9326998868e+02 0.0000000000e+00 0.0000e+00 1.0000e+00
</event>
<event>
 6      1 +1.4834189e-01 1.00049100e+04 7.81653100e-03 6.93842900e-02
  1000022 -1    0    0    0    0 +0.0000000000e+00 +0.0000000000e+00 +4.4721471353e+01 1.0000100000e+04 1.0000000000e+04 0.0000e+00 -1.0000e+00
  1000022 -1    0    0    0    0 -0.0000000000e+00 -0.0000000000e+00 -4.4721471353e+01 1.0000100000e+04 1.0000000000e+04 0.0000e+00 -1.0000e+00
      -24  1    1    2    0    0 +4.3707635048e+03 +1.5686931297e+03 +8.5482294545e+03 9.7284619148e+03 7.9829010000e+01 0.0000e+00 -1.0000e+00
       24  1    1    2    0    0 -2.4293874329e+03 -1.0605598668e+03 -5.2285215843e+03 5.8626377304e+03 7.9829010000e+01 0.0000e+00 -1.0000e+00
       22  1    1    2    0    0 +1.1166077615e+02 -2.7456181844e+00 +2.4232273399e+02 2.6682573856e+02 0.0000000000e+00 0.0000e+00 -1.0000e+00
       22  1    1    2    0    0 -2.0530368480e+03 -5.0538764472e+02 -3.5620306042e+03 4.1422746162e+03 0.0000000000e+00 0.0000e+00 -1.0000e+00
</event>
<event>
 6      1 +1.4834189e-01 1.03190400e+04 7.81653100e-03 6.91981400e-02
  1000022 -1    0    0    0    0 +0.0000000000e+00 +0.0000000000e+00 +4.4721471353e+01 1.0000100000e+04 1.0000000000e+04 0.0000e+00 -1.0000e+00
  1000022 -1    0    0    0    0 -0.0000000000e+00 -0.0000000000e+00 -4.4721471353e+01 1.0000100000e+04 1.0000000000e+04 0.0000e+00 -1.0000e+00
      -24  1    1    2    0    0 +8.1004889209e+03 +1.8746990510e+03 +4.9584352352e+03 9.6811605679e+03 7.9829010000e+01 0.0000e+00 1.0000e+00
       24  1    1    2    0    0 -7.3908628821e+03 -1.2600001347e+03 -3.4881263977e+03 8.2695739260e+03 7.9829010000e+01 0.0000e+00 1.0000e+00
       22  1    1    2    0    0 -4.6137300963e+02 -2.3117755091e+02 -6.5756258265e+00 5.1609238796e+02 0.0000000000e+00 0.0000e+00 -1.0000e+00
       22  1    1    2    0    0 -2.4825302921e+02 -3.8352136544e+02 -1.4637332117e+03 1.5333731181e+03 0.0000000000e+00 0.0000e+00 1.0000e+00
</event>
<event>
 6      1 +1.4834189e-01 1.00030300e+04 7.81653100e-03 6.93854300e-02
  1000022 -1    0    0    0    0 +0.0000000000e+00 +0.0000000000e+00 +4.4721471353e+01 1.0000100000e+04 1.0000000000e+04 0.0000e+00 -1.0000e+00
  1000022 -1    0    0    0    0 -0.0000000000e+00 -0.0000000000e+00 -4.4721471353e+01 1.0000100000e+04 1.0000000000e+04 0.0000e+00 -1.0000e+00
      -24  1    1    2    0    0 -6.3931252916e+02 +2.2487895102e+03 +9.7196343659e+03 9.9971715824e+03 7.9829010000e+01 0.0000e+00 -1.0000e+00
       24  1    1    2    0    0 +5.6152051333e+02 -2.1272541248e+03 -9.3045362502e+03 9.5614477408e+03 7.9829010000e+01 0.0000e+00 -1.0000e+00
       22  1    1    2    0    0 +4.8921491874e+00 -3.6156880240e+01 -1.3438790210e+02 1.3925286835e+02 0.0000000000e+00 0.0000e+00 -1.0000e+00
       22  1    1    2    0    0 +7.2899866644e+01 -8.5378505164e+01 -2.8071021361e+02 3.0232780839e+02 0.0000000000e+00 0.0000e+00 -1.0000e+00
</event>
<event>
 6      1 +1.4834189e-01 1.01561300e+04 7.81653100e-03 6.92938300e-02
  1000022 -1    0    0    0    0 +0.0000000000e+00 +0.0000000000e+00 +4.4721471353e+01 1.0000100000e+04 1.0000000000e+04 0.0000e+00 -1.0000e+00
  1000022 -1    0    0    0    0 -0.0000000000e+00 -0.0000000000e+00 -4.4721471353e+01 1.0000100000e+04 1.0000000000e+04 0.0000e+00 -1.0000e+00
      -24  1    1    2    0    0 -6.4148517978e+02 +1.2029794483e+03 -1.0454859267e+03 1.7199058935e+03 7.9829010000e+01 0.0000e+00 -1.0000e+00
       24  1    1    2    0    0 +2.7636779984e+03 -6.6164477050e+03 +6.0779746767e+03 9.4001832510e+03 7.9829010000e+01 0.0000e+00 -1.0000e+00
       22  1    1    2    0    0 -1.8445951277e+03 +6.1164682786e+03 -5.0187957426e+03 8.1241631012e+03 0.0000000000e+00 0.0000e+00 -1.0000e+00
       22  1    1    2    0    0 -2.7759769089e+02 -7.0300002190e+02 -1.3693007442e+01 7.5594775430e+02 0.0000000000e+00 0.0000e+00 -1.0000e+00
</event>
<event>
 6      1 +1.4834189e-01 1.08098000e+04 7.81653100e-03 6.89202700e-02
  1000022 -1    0    0    0    0 +0.0000000000e+00 +0.0000000000e+00 +4.4721471353e+01 1.0000100000e+04 1.0000000000e+04 0.0000e+00 -1.0000e+00
  1000022 -1    0    0    0    0 -0.0000000000e+00 -0.0000000000e+00 -4.4721471353e+01 1.0000100000e+04 1.0000000000e+04 0.0000e+00 -1.0000e+00
      -24  1    1    2    0    0 +1.7301836461e+03 -3.8480911698e+03 -1.3765937222e+03 4.4387750615e+03 7.9829010000e+01 0.0000e+00 1.0000e+00
       24  1    1    2    0    0 -2.0398106315e+03 +8.9055285074e+03 +9.9392291537e+02 9.1904037366e+03 7.9829010000e+01 0.0000e+00 1.0000e+00
       22  1    1    2    0    0 +1.6557361249e+03 -2.5539644535e+03 -1.0084623919e+03 3.2064299371e+03 0.0000000000e+00 0.0000e+00 1.0000e+00
       22  1    1    2    0    0 -1.3461091395e+03 -2.5034728841e+03 +1.3911331987e+03 3.1645912648e+03 0.0000000000e+00 0.0000e+00 1.0000e+00
</event>
<event>
 6      1 +1.4834189e-01 1.00001100e+04 7.81653100e-03 6.93871900e-02
  1000022 -1    0    0    0    0 +0.0000000000e+00 +0.0000000000e+00 +4.4721471353e+01 1.0000100000e+04 1.0000000000e+04 0.0000e+00 -1.0000e+00
  1000022 -1    0    0    0    0 -0.0000000000e+00 -0.0000000000e+00 -4.4721471353e+01 1.0000100000e+04 1.0000000000e+04 0.0000e+00 -1.0000e+00
      -24  1    1    2    0    0 +3.7760035122e+02 +5.5906730769e+03 +8.2476180406e+03 9.9713481281e+03 7.9829010000e+01 0.0000e+00 -1.0000e+00
       24  1    1    2    0    0 -3.6944924912e+02 -5.4795618865e+03 -8.0783488195e+03 9.7687350018e+03 7.9829010000e+01 0.0000e+00 -1.0000e+00
       22  1    1    2    0    0 -9.5720499730e+00 -1.2761643864e+02 -1.9275878750e+02 2.3137313957e+02 0.0000000000e+00 0.0000e+00 1.0000e+00
       22  1    1    2    0    0 +1.4209478676e+00 +1.6505248300e+01 +2.3489566403e+01 2.8743730517e+01 0.0000000000e+00 0.0000e+00 1.0000e+00
</event>
<event>
 6      1 +1.4834189e-01 1.03400800e+04 7.81653100e-03 6.91859100e-02
  1000022 -1    0    0    0    0 +0.0000000000e+00 +0.0000000000e+00 +4.4721471353e+01 1.0000100000e+04 1.0000000000e+04 0.0000e+00 1.0000e+00
  1000022 -1    0    0    0    0 -0.0000000000e+00 -0.0000000000e+00 -4.4721471353e+01 1.0000100000e+04 1.0000000000e+04 0.0000e+00 1.0000e+00
      -24  1    1    2    0    0 +1.2794538892e+02 +7.9781998449e+03 -1.1805900173e+03 8.0664867351e+03 7.9829010000e+01 0.0000e+00 -1.0000e+00
       24  1    1    2    0    0 -8.9799101531e+02 -8.2899415400e+03 +2.5521297516e+03 8.7206225432e+03 7.9829010000e+01 0.0000e+00 -1.0000e+00
       22  1    1    2    0    0 +5.4739870639e+02 -1.2043986575e+03 -9.3403809371e+02 1.6194593636e+03 0.0000000000e+00 0.0000e+00 -1.0000e+00
       22  1    1    2    0    0 +2.2264692001e+02 +1.5161403526e+03 -4.3750164061e+02 1.5936313581e+03 0.0000000000e+00 0.0000e+00 -1.0000e+00
</event>
<event>
 6      1 +1.4834189e-01 1.00019200e+04 7.81653100e-03 6.93860900e-02
  1000022 -1    0    0    0    0 +0.0000000000e+00 +0.0000000000e+00 +4.4721471353e+01 1.0000100000e+04 1.0000000000e+04 0.0000e+00 1.0000e+00
  1000022 -1    0    0    0    0 -0.0000000000e+00 -0.0000000000e+00 -4.4721471353e+01 1.0000100000e+04 1.0000000000e+04 0.0000e+00 1.0000e+00
      -24  1    1    2    0    0 -4.0586585290e+03 -4.1217388729e+03 -8.0364131023e+03 9.9021082913e+03 7.9829010000e+01 0.0000e+00 -1.0000e+00
       24  1    1    2    0    0 +3.9311503219e+03 +4.0107406203e+03 +7.7535421947e+03 9.5741199289e+03 7.9829010000e+01 0.0000e+00 -1.0000e+00
       22  1    1    2    0    0 +1.6971209661e+02 +1.7436390309e+02 +3.4742295103e+02 4.2415524674e+02 0.0000000000e+00 0.0000e+00 -1.0000e+00
       22  1    1    2    0    0 -4.2203889544e+01 -6.3365650477e+01 -6.4552043467e+01 9.9816533044e+01 0.0000000000e+00 0.0000e+00 1.0000e+00
</event>
<event>
 6      1 +1.4834189e-01 1.00654200e+04 7.81653100e-03 6.93479100e-02
  1000022 -1    0    0    0    0 +0.0000000000e+00 +0.0000000000e+00 +4.4721471353e+01 1.0000100000e+04 1.0000000000e+04 0.0000e+00 -1.0000e+00
  1000022 -1    0    0    0    0 -0.0000000000e+00 -0.0000000000e+00 -4.4721471353e+01 1.0000100000e+04 1.0000000000e+04 0.0000e+00 -1.0000e+00
      -24  1    1    2    0    0 -1.2546181071e+03 -2.9030312954e+03 +1.7269420772e+03 3.6042140482e+03 7.9829010000e+01 0.0000e+00 1.0000e+00
       24  1    1    2    0    0 +9.3117308431e+02 +7.5572445449e+03 -6.0138873365e+03 9.7032078197e+03 7.9829010000e+01 0.0000e+00 1.0000e+00
       22  1    1    2    0    0 +3.3398708923e+02 +9.5933145633e+01 +1.0219785050e+02 3.6220842735e+02 0.0000000000e+00 0.0000e+00 -1.0000e+00
       22  1    1    2    0    0 -1.0542066474e+01 -4.7501463952e+03 +4.1847474088e+03 6.3305697047e+03 0.0000000000e+00 0.0000e+00 1.0000e+00
</event>
<event>
 6      1 +1.4834189e-01 1.04382200e+04 7.81653100e-03 6.91292600e-02
  1000022 -1    0    0    0    0 +0.0000000000e+00 +0.0000000000e+00 +4.4721471353e+01 1.0000100000e+04 1.0000000000e+04 0.0000e+00 1.0000e+00
  1000022 -1    0    0    0    0 -0.0000000000e+00 -0.0000000000e+00 -4.4721471353e+01 1.0000100000e+04 1.0000000000e+04 0.0000e+00 1.0000e+00
      -24  1    1    2    0    0 +8.7255389382e+02 -4.7363271896e+03 -8.2292608164e+03 9.5352635936e+03 7.9829010000e+01 0.0000e+00 1.0000e+00
       24  1    1    2    0    0 +1.3175081651e+02 +4.6115953576e+03 +8.1961966040e+03 9.4057525728e+03 7.9829010000e+01 0.0000e+00 1.0000e+00
       22  1    1    2    0    0 +1.7315910141e+01 -2.0169676536e+01 -2.6921587980e+00 2.6718987903e+01 0.0000000000e+00 0.0000e+00 -1.0000e+00
       22  1    1    2    0    0 -1.0216206205e+03 +1.4490150854e+02 +3.5756371265e+01 1.0324648456e+03 0.0000000000e+00 0.0000e+00 -1.0000e+00
</event>
<event>
 6      1 +1.4834189e-01 1.00287300e+04 7.81653100e-03 6.93699400e-02
  1000022 -1    0    0    0    0 +0.0000000000e+00 +0.0000000000e+00 +4.4721471353e+01 1.0000100000e+04 1.0000000000e+04 0.0000e+00 1.0000e+00
  1000022 -1    0    0    0    0 -0.0000000000e+00 -0.0000000000e+00 -4.4721471353e+01 1.0000100000e+04 1.0000000000e+04 0.0000e+00 1.0000e+00
      -24  1    1    2    0    0 +7.9949160769e+01 -3.0741127683e+02 -9.2320381628e+00 3.2764533080e+02 7.9829010000e+01 0.0000e+00 -1.0000e+00
       24  1    1    2    0    0 -6.5621364786e+03 +6.9569919953e+03 +2.7045620560e+03 9.9389336134e+03 7.9829010000e+01 0.0000e+00 1.0000e+00
       22  1    1    2    0    0 -1.5932866764e+01 +2.7553581800e+01 +6.7625406282e+00 3.2539023788e+01 0.0000000000e+00 0.0000e+00 -1.0000e+00
       22  1    1    2    0    0 +6.4981201846e+03 -6.6771343003e+03 -2.7020925585e+03 9.7010820320e+03 0.0000000000e+00 0.0000e+00 1.0000e+00
</event>
<event>
 6      1 +1.4834189e-01 1.00051400e+04 7.81653100e-03 6.93841500e-02
  1000022 -1    0    0    0    0 +0.0000000000e+00 +0.0000000000e+00 +4.4721471353e+01 1.0000100000e+04 1.0000000000e+04 0.0000e+00 1.0000e+00
  1000022 -1    0    0    0    0 -0.0000000000e+00 -0.0000000000e+00 -4.4721471353e+01 1.0000100000e+04 1.0000000000e+04 0.0000e+00 1.0000e+00
      -24  1    1    2    0    0 -1.8796380685e+02 -4.2446693714e+03 +6.2946987957e+01 4.2500451127e+03 7.9829010000e+01 0.0000e+00 -1.0000e+00
       24  1    1    2    0    0 +3.9021850591e+02 +7.2312325171e+03 -2.7447842552e+02 7.2473929986e+03 7.9829010000e+01 0.0000e+00 1.0000e+00
       22  1    1    2    0    0 -3.7403824954e+02 -5.7327621764e+03 +2.7005540162e+01 5.7450148896e+03 0.0000000000e+00 0.0000e+00 1.0000e+00
       22  1    1    2    0    0 +1.7178355048e+02 +2.7461990307e+03 +1.8452589741e+02 2.7577469991e+03 0.0000000000e+00 0.0000e+00 1.0000e+00
</event>
<event>
 6      1 +1.4834189e-01 1.02518400e+04 7.81653100e-03 6.92374000e-02
  1000022 -1    0    0    0    0 +0.0000000000e+00 +0.0000000000e+00 +4.4721471353e+01 1.0000100000e+04 1.0000000000e+04 0.0000e+00 1.0000e+00
  1000022 -1    0    0    0    0 -0.0000000000e+00 -0.0000000000e+00 -4.4721471353e+01 1.0000100000e+04 1.0000000000e+04 0.0000e+00 1.0000e+00
      -24  1    1    2    0    0 -7.1144331191e+03 +6.5920230983e+03 -7.7180426477e+01 9.6996008486e+03 7.9829010000e+01 0.0000e+00 1.0000e+00
       24  1    1    2    0    0 +5.9189244604e+03 -6.1509652619e+03 +1.0576774800e+03 8.6019238978e+03 7.9829010000e+01 0.0000e+00 1.0000e+00
       22  1    1    2    0    0 -3.6601073622e+01 +3.0511198266e+01 +1.0337101790e+01 4.8758870817e+01 0.0000000000e+00 0.0000e+00 1.0000e+00
       22  1    1    2    0    0 +1.2321097323e+03 -4.7156903461e+02 -9.9083415530e+02 1.6499163828e+03 0.0000000000e+00 0.0000e+00 1.0000e+00
</event>
<event>
 6      1 +1.4834189e-01 1.00093400e+04 7.81653100e-03 6.93816200e-02
  1000022 -1    0    0    0    0 +0.0000000000e+00 +0.0000000000e+00 +4.4721471353e+01 1.0000100000e+04 1.0000000000e+04 0.0000e+00 1.0000e+00
  1000022 -1    0    0    0    0 -0.0000000000e+00 -0.0000000000e+00 -4.4721471353e+01 1.0000100000e+04 1.0000000000e+04 0.0000e+00 1.0000e+00
      -24  1    1    2    0    0 -1.4649556922e+03 -9.2923787588e+03 -2.1996066796e+03 9.6612131947e+03 7.9829010000e+01 0.0000e+00 -1.0000e+00
       24  1    1    2    0    0 +1.4772384110e+03 +9.5620968079e+03 +2.1462862811e+03 9.9110466731e+03 7.9829010000e+01 0.0000e+00 -1.0000e+00
       22  1    1    2    0    0 -2.4693305674e+01 -3.4573654802e+02 +3.2420836542e+01 3.4813019207e+02 0.0000000000e+00 0.0000e+00 1.0000e+00
       22  1    1    2    0    0 +1.2410586876e+01 +7.6018498961e+01 +2.0899561951e+01 7.9809940112e+01 0.0000000000e+00 0.0000e+00 1.0000e+00
</event>
<event>
 6      1 +1.4834189e-01 1.00045800e+04 7.81653100e-03 6.93844900e-02
  1000022 -1    0    0    0    0 +0.0000000000e+00 +0.0000000000e+00 +4.4721471353e+01 1.0000100000e+04 1.0000000000e+04 0.0000e+00 -1.0000e+00
  1000022 -1    0    0    0    0 -0.0000000000e+00 -0.0000000000e+00 -4.4721471353e+01 1.0000100000e+04 1.0000000000e+04 0.0000e+00 -1.0000e+00
      -24  1    1    2    0    0 -6.7265851512e+03 -1.1385430743e+03 -5.1099887582e+03 8.5241765531e+03 7.9829010000e+01 0.0000e+00 -1.0000e+00
       24  1    1    2    0    0 +7.4046459508e+03 +1.4385458173e+03 +5.6138651255e+03 9.4031936087e+03 7.9829010000e+01 0.0000e+00 -1.0000e+00
       22  1    1    2    0    0 +5.3391341753e+02 -5.1823116289e+00 +2.7672602736e+02 6.0138813423e+02 0.0000000000e+00 0.0000e+00 -1.0000e+00
       22  1    1    2    0    0 -1.2119742171e+03 -2.9482043134e+02 -7.8060239466e+02 1.4714417040e+03 0.0000000000e+00 0.0000e+00 -1.0000e+00
</event>
<event>
 6      1 +1.4834189e-01 1.00561500e+04 7.81653100e-03 6.93534600e-02
  1000022 -1    0    0    0    0 +0.0000000000e+00 +0.0000000000e+00 +4.4721471353e+01 1.0000100000e+04 1.0000000000e+04 0.0000e+00 -1.0000e+00
  1000022 -1    0    0    0    0 -0.0000000000e+00 -0.0000000000e+00 -4.4721471353e+01 1.0000100000e+04 1.0000000000e+04 0.0000e+00 -1.0000e+00
      -24  1    1    2    0    0 -7.1487688575e+03 -4.7939442147e+03 -2.4530115671e+03 8.9504433259e+03 7.9829010000e+01 0.0000e+00 1.0000e+00
       24  1    1    2    0    0 +7.9751477627e+03 +5.2004991393e+03 +2.8687312126e+03 9.9440517183e+03 7.9829010000e+01 0.0000e+00 1.0000e+00
       22  1    1    2    0    0 -1.3986508635e+02 +6.4669839686e+01 -1.8675614269e+02 2.4212039851e+02 0.0000000000e+00 0.0000e+00 1.0000e+00
       22  1    1    2    0    0 -6.8651381893e+02 -4.7122476422e+02 -2.2896350274e+02 8.6358455729e+02 0.0000000000e+00 0.0000e+00 1.0000e+00
</event>
<event>
 6      1 +1.4834189e-01 1.00130500e+04 7.81653100e-03 6.93793800e-02
  1000022 -1    0    0    0    0 +0.0000000000e+00 +0.0000000000e+00 +4.4721471353e+01 1.0000100000e+04 1.0000000000e+04 0.0000e+00 -1.0000e+00
  1000022 -1    0    0    0    0 -0.0000000000e+00 -0.0000000000e+00 -4.4721471353e+01 1.0000100000e+04 1.0000000000e+04 0.0000e+00 -1.0000e+00
      -24  1    1    2    0    0 -4.7635209560e+03 -2.1525637325e+03 +6.9888234811e+03 8.7278112285e+03 7.9829010000e+01 0.0000e+00 1.0000e+00
       24  1    1    2    0    0 +3.6249480006e+03 +1.2224487554e+03 -4.7506823240e+03 6.0999987034e+03 7.9829010000e+01 0.0000e+00 1.0000e+00
       22  1    1    2    0    0 +1.8841850275e+03 +1.1662081318e+03 -3.2251819356e+03 3.9130541962e+03 0.0000000000e+00 0.0000e+00 1.0000e+00
       22  1    1    2    0    0 -7.4561207212e+02 -2.3609315466e+02 +9.8704077856e+02 1.2593358719e+03 0.0000000000e+00 0.0000e+00 1.0000e+00
</event>
<event>
 6      1 +1.4834189e-01 1.00003900e+04 7.81653100e-03 6.93870200e-02
  1000022 -1    0    0    0    0 +0.0000000000e+00 +0.0000000000e+00 +4.4721471353e+01 1.0000100000e+04 1.0000000000e+04 0.0000e+00 1.0000e+00
  1000022 -1    0    0    0    0 -0.0000000000e+00 -0.0000000000e+00 -4.4721471353e+01 1.0000100000e+04 1.0000000000e+04 0.0000e+00 1.0000e+00
      -24  1    1    2    0    0 -6.7405113213e+03 +5.9999985820e+03 +3.3253420350e+03 9.6176269514e+03 7.9829010000e+01 0.0000e+00 1.0000e+00
       24  1    1    2    0    0 +6.9813311845e+03 -6.2107457671e+03 -3.4217182453e+03 9.9512248749e+03 7.9829010000e+01 0.0000e+00 1.0000e+00
       22  1    1    2    0    0 +2.6737298909e+01 -3.8625605291e+01 -1.4495092149e+01 4.9162264323e+01 0.0000000000e+00 0.0000e+00 1.0000e+00
       22  1    1    2    0    0 -2.6755716214e+02 +2.4937279030e+02 +1.1087130244e+02 3.8218590929e+02 0.0000000000e+00 0.0000e+00 1.0000e+00
</event>
<event>
 6      1 +1.4834189e-01 1.00440600e+04 7.81653100e-03 6.93607200e-02
  1000022 -1    0    0    0    0 +0.0000000000e+00 +0.0000000000e+00 +4.4721471353e+01 1.0000100000e+04 1.0000000000e+04 0.0000e+00 -1.0000e+00
  1000022 -1    0    0    0    0 -0.0000000000e+00 -0.0000000000e+00 -4.4721471353e+01 1.0000100000e+04 1.0000000000e+04 0.0000e+00 -1.0000e+00
      -24  1    1    2    0    0 -2.5347141747e+02 -6.9888300280e+02 -5.9408548186e+02 9.5498452430e+02 7.9829010000e+01 0.0000e+00 0.0000e+00
       24  1    1    2    0    0 +2.7761760218e+03 +7.9504482330e+03 +5.1473984103e+03 9.8700994663e+03 7.9829010000e+01 0.0000e+00 1.0000e+00
       22  1    1    2    0    0 -1.2137588672e+02 +1.2386590001e+02 +1.3682356773e+01 1.7395997801e+02 0.0000000000e+00 0.0000e+00 -1.0000e+00
       22  1    1    2    0    0 -2.4013287176e+03 -7.3754311302e+03 -4.5669952852e+03 9.0011560314e+03 0.0000000000e+00 0.0000e+00 1.0000e+00
</event>
<event>
 6      1 +1.4834189e-01 1.02596900e+04 7.81653100e-03 6.92328000e-02
  1000022 -1    0    0    0    0 +0.0000000000e+00 +0.0000000000e+00 +4.4721471353e+01 1.0000100000e+04 1.0000000000e+04 0.0000e+00 -1.0000e+00
  1000022 -1    0    0    0    0 -0.0000000000e+00 -0.0000000000e+00 -4.4721471353e+01 1.0000100000e+04 1.0000000000e+04 0.0000e+00 -1.0000e+00
      -24  1    1    2    0    0 -4.9647387500e+03 +7.9892625393e+03 -1.9416693702e+03 9.6048633198e+03 7.9829010000e+01 0.0000e+00 -1.0000e+00
       24  1    1    2    0    0 +5.8638455836e+01 -2.6580831574e+03 +8.8790856230e+02 2.8042109097e+03 7.9829010000e+01 0.0000e+00 1.0000e+00
       22  1    1    2    0    0 -1.0224240983e+02 +8.4487504461e+01 -2.8447579251e+01 1.3564996698e+02 0.0000000000e+00 0.0000e+00 -1.0000e+00
       22  1    1    2    0    0 +5.0083427040e+03 -5.4156668864e+03 +1.0822083871e+03 7.4554758036e+03 0.0000000000e+00 0.0000e+00 -1.0000e+00
</event>
<event>
 6      1 +1.4834189e-01 1.00032900e+04 7.81653100e-03 6.93852700e-02
  1000022 -1    0    0    0    0 +0.0000000000e+00 +0.0000000000e+00 +4.4721471353e+01 1.0000100000e+04 1.0000000000e+04 0.0000e+00 -1.0000e+00
  1000022 -1    0    0    0    0 -0.0000000000e+00 -0.0000000000e+00 -4.4721471353e+01 1.0000100000e+04 1.0000000000e+04 0.0000e+00 -1.0000e+00
      -24  1    1    2    0    0 +3.3396260243e+03 -8.5296706668e+03 -3.2675560153e+03 9.7258253455e+03 7.9829010000e+01 0.0000e+00 1.0000e+00
       24  1    1    2    0    0 -3.3929263571e+03 +8.7831201914e+03 +3.3140863523e+03 9.9822187204e+03 7.9829010000e+01 0.0000e+00 1.0000e+00
       22  1    1    2    0    0 +5.8928199104e+01 -2.6632482397e+02 -5.0828560158e+01 2.7746168571e+02 0.0000000000e+00 0.0000e+00 -1.0000e+00
       22  1    1    2    0    0 -5.6278663089e+00 +1.2875299431e+01 +4.2982231343e+00 1.4694248424e+01 0.0000000000e+00 0.0000e+00 1.0000e+00
</event>
<event>
 6      1 +1.4834189e-01 1.00898800e+04 7.81653100e-03 6.93332700e-02
  1000022 -1    0    0    0    0 +0.0000000000e+00 +0.0000000000e+00 +4.4721471353e+01 1.0000100000e+04 1.0000000000e+04 0.0000e+00 1.0000e+00
  1000022 -1    0    0    0    0 -0.0000000000e+00 -0.0000000000e+00 -4.4721471353e+01 1.0000100000e+04 1.0000000000e+04 0.0000e+00 1.0000e+00
      -24  1    1    2    0    0 +4.8881636529e+02 -9.4171019168e+03 -2.3063537991e+03 9.7080580173e+03 7.9829010000e+01 0.0000e+00 -1.0000e+00
       24  1    1    2    0    0 -6.5679457468e+02 +9.6564784692e+03 +2.1281653846e+03 9.9103186686e+03 7.9829010000e+01 0.0000e+00 -1.0000e+00
       22  1    1    2    0    0 +7.7224329208e+00 -7.3677107296e+01 -2.1182495541e+01 7.7049660785e+01 0.0000000000e+00 0.0000e+00 1.0000e+00
       22  1    1    2    0    0 +1.6025577647e+02 -1.6569944510e+02 +1.9937090999e+02 3.0477365331e+02 0.0000000000e+00 0.0000e+00 1.0000e+00
</event>
<event>
 6      1 +1.4834189e-01 1.00114100e+04 7.81653100e-03 6.93803700e-02
  1000022 -1    0    0    0    0 +0.0000000000e+00 +0.0000000000e+00 +4.4721471353e+01 1.0000100000e+04 1.0000000000e+04 0.0000e+00 -1.0000e+00
  1000022 -1    0    0    0    0 -0.0000000000e+00 -0.0000000000e+00 -4.4721471353e+01 1.0000100000e+04 1.0000000000e+04 0.0000e+00 -1.0000e+00
      -24  1    1    2    0    0 +3.6767996828e+03 -5.0170877135e+03 +7.8153386746e+03 9.9887895313e+03 7.9829010000e+01 0.0000e+00 -1.0000e+00
       24  1    1    2    0    0 -3.4269396146e+03 +4.7545877930e+03 -7.3454074117e+03 9.3974146933e+03 7.9829010000e+01 0.0000e+00 -1.0000e+00
       22  1    1    2    0    0 -2.2979965156e+02 +2.5794694187e+02 -4.7976034884e+02 5.9119751098e+02 0.0000000000e+00 0.0000e+00 1.0000e+00
       22  1    1    2    0    0 -2.0060416631e+01 +4.5529785995e+00 +9.8290859452e+00 2.2798264409e+01 0.0000000000e+00 0.0000e+00 -1.0000e+00
</event>
<event>
 6      1 +1.4834189e-01 1.03215100e+04 7.81653100e-03 6.91967100e-02
  1000022 -1    0    0    0    0 +0.0000000000e+00 +0.0000000000e+00 +4.4721471353e+01 1.0000100000e+04 1.0000000000e+04 0.0000e+00 -1.0000e+00
  1000022 -1    0    0    0    0 -0.0000000000e+00 -0.0000000000e+00 -4.4721471353e+01 1.0000100000e+04 1.0000000000e+04 0.0000e+00 -1.0000e+00
      -24  1    1    2    0    0 -5.6378485287e+03 -7.4951698589e+02 +5.1049675232e+03 7.6429168403e+03 7.9829010000e+01 0.0000e+00 -1.0000e+00
       24  1    1    2    0    0 +5.8372056544e+03 -2.6012112368e+02 -7.1381977288e+03 9.2250134057e+03 7.9829010000e+01 0.0000e+00 -1.0000e+00
       22  1    1    2    0    0 +2.0967319708e+02 -3.0136460007e+01 -4.0119111307e+02 4.5367980448e+02 0.0000000000e+00 0.0000e+00 1.0000e+00
       22  1    1    2    0    0 -4.0903032274e+02 +1.0397745696e+03 +2.4344213186e+03 2.6785899494e+03 0.0000000000e+00 0.0000e+00 1.0000e+00
</event>
<event>
 6      1 +1.4834189e-01 1.00092400e+04 7.81653100e-03 6.93816800e-02
  1000022 -1    0    0    0    0 +0.0000000000e+00 +0.0000000000e+00 +4.4721471353e+01 1.0000100000e+04 1.0000000000e+04 0.0000e+00 -1.0000e+00
  1000022 -1    0    0    0    0 -0.0000000000e+00 -0.0000000000e+00 -4.4721471353e+01 1.0000100000e+04 1.0000000000e+04 0.0000e+00 -1.0000e+00
      -24  1    1    2    0    0 +6.0668238173e+03 +7.8420419118e+03 -1.2283899519e+03 9.9909602702e+03 7.9829010000e+01 0.0000e+00 1.0000e+00
       24  1    1    2    0    0 -6.0577892729e+03 -7.7867210159e+03 +1.1950313689e+03 9.9380233295e+03 7.9829010000e+01 0.0000e+00 1.0000e+00
       22  1    1    2    0    0 -7.5777910400e+00 -6.7034141241e+00 +1.7215308756e+01 1.9968112919e+01 0.0000000000e+00 0.0000e+00 1.0000e+00
       22  1    1    2    0    0 -1.4567533616e+00 -4.8617481710e+01 +1.6143274259e+01 5.1248287405e+01 0.0000000000e+00 0.0000e+00 -1.0000e+00
</event>
<event>
 6      1 +1.4834189e-01 1.00010300e+04 7.81653100e-03 6.93866300e-02
  1000022 -1    0    0    0    0 +0.0000000000e+00 +0.0000000000e+00 +4.4721471353e+01 1.0000100000e+04 1.0000000000e+04 0.0000e+00 1.0000e+00
  1000022 -1    0    0    0    0 -0.0000000000e+00 -0.0000000000e+00 -4.4721471353e+01 1.0000100000e+04 1.0000000000e+04 0.0000e+00 1.0000e+00
      -24  1    1    2    0    0 -3.8219351057e+03 +8.2603880033e+03 -4.0977146051e+03 9.9819254442e+03 7.9829010000e+01 0.0000e+00 1.0000e+00
       24  1    1    2    0    0 +5.9811757881e+02 -1.3122809627e+03 +6.8184646042e+02 1.5972204699e+03 7.9829010000e+01 0.0000e+00 0.0000e+00
       22  1    1    2    0    0 +3.2302397781e+03 -6.9612121910e+03 +3.4250601821e+03 8.4038063663e+03 0.0000000000e+00 0.0000e+00 1.0000e+00
       22  1    1    2    0    0 -6.4222512033e+00 +1.3105150388e+01 -9.1920374482e+00 1.7247719549e+01 0.0000000000e+00 0.0000e+00 -1.0000e+00
</event>
<event>
 6      1 +1.4834189e-01 1.00013800e+04 7.81653100e-03 6.93864200e-02
  1000022 -1    0    0    0    0 +0.0000000000e+00 +0.0000000000e+00 +4.4721471353e+01 1.0000100000e+04 1.0000000000e+04 0.0000e+00 -1.0000e+00
  1000022 -1    0    0    0    0 -0.0000000000e+00 -0.0000000000e+00 -4.4721471353e+01 1.0000100000e+04 1.0000000000e+04 0.0000e+00 -1.0000e+00
      -24  1    1    2    0    0 -3.7252702577e+02 +7.1148167206e+03 -6.9041687394e+03 9.9213563592e+03 7.9829010000e+01 0.0000e+00 1.0000e+00
       24  1    1    2    0    0 +3.8661042159e+02 -7.1780795451e+03 +6.9495097793e+03 9.9988175510e+03 7.9829010000e+01 0.0000e+00 1.0000e+00
       22  1    1    2    0    0 +1.5936568856e+00 +1.5074935435e+01 -1.2421352159e+01 1.9598046078e+01 0.0000000000e+00 0.0000e+00 -1.0000e+00
       22  1    1    2    0    0 -1.5677052705e+01 +4.8187889126e+01 -3.2919687708e+01 6.0428043810e+01 0.0000000000e+00 0.0000e+00 -1.0000e+00
</event>
<event>
 6      1 +1.4834189e-01 1.00137000e+04 7.81653100e-03 6.93789900e-02
  1000022 -1    0    0    0    0 +0.0000000000e+00 +0.0000000000e+00 +4.4721471353e+01 1.0000100000e+04 1.0000000000e+04 0.0000e+00 1.0000e+00
  1000022 -1    0    0    0    0 -0.0000000000e+00 -0.0000000000e+00 -4.4721471353e+01 1.0000100000e+04 1.0000000000e+04 0.0000e+00 1.0000e+00
      -24  1    1    2    0    0 -2.8113905614e+03 -8.6650907293e+03 -1.6947855234e+03 9.2664116505e+03 7.9829010000e+01 0.0000e+00 -1.0000e+00
       24  1    1    2    0    0 +3.0223194473e+03 +9.3599418812e+03 +1.6135181151e+03 9.9675844737e+03 7.9829010000e+01 0.0000e+00 -1.0000e+00
       22  1    1    2    0    0 -2.1605088079e+02 -7.1153763047e+02 +7.3971259446e+01 7.4728544070e+02 0.0000000000e+00 0.0000e+00 1.0000e+00
       22  1    1    2    0    0 +5.1219948861e+00 +1.6686478533e+01 +7.2961488254e+00 1.8918435060e+01 0.0000000000e+00 0.0000e+00 -1.0000e+00
</event>
<event>
 6      1 +1.4834189e-01 9.68890200e+03 7.81653100e-03 6.95786200e-02
  1000022 -1    0    0    0    0 +0.0000000000e+00 +0.0000000000e+00 +4.4721471353e+01 1.0000100000e+04 1.0000000000e+04 0.0000e+00 1.0000e+00
  1000022 -1    0    0    0    0 -0.0000000000e+00 -0.0000000000e+00 -4.4721471353e+01 1.0000100000e+04 1.0000000000e+04 0.0000e+00 1.0000e+00
      -24  1    1    2    0    0 -2.5369735898e+02 -4.8359315175e+02 +2.9887441780e+02 6.2763307340e+02 7.9829010000e+01 0.0000e+00 -1.0000e+00
       24  1    1    2    0    0 -2.6620664614e+03 -4.4124617416e+03 -7.5894199079e+03 9.1739895179e+03 7.9829010000e+01 0.0000e+00 1.0000e+00
       22  1    1    2    0    0 +3.1558525597e+03 +5.1452941524e+03 +7.6198410695e+03 9.7208762577e+03 0.0000000000e+00 0.0000e+00 1.0000e+00
       22  1    1    2    0    0 -2.4008873935e+02 -2.4923925906e+02 -3.2929557943e+02 4.7770115099e+02 0.0000000000e+00 0.0000e+00 -1.0000e+00
</event>
<event>
 6      1 +1.4834189e-01 1.00676300e+04 7.81653100e-03 6.93465800e-02
  1000022 -1    0    0    0    0 +0.0000000000e+00 +0.0000000000e+00 +4.4721471353e+01 1.0000100000e+04 1.0000000000e+04 0.0000e+00 -1.0000e+00
  1000022 -1    0    0    0    0 -0.0000000000e+00 -0.0000000000e+00 -4.4721471353e+01 1.0000100000e+04 1.0000000000e+04 0.0000e+00 -1.0000e+00
      -24  1    1    2    0    0 -7.4858459549e+03 -4.9410625755e+03 -3.1283643095e+03 9.4997381521e+03 7.9829010000e+01 0.0000e+00 1.0000e+00
       24  1    1    2    0    0 +7.9186495751e+03 +4.9922948984e+03 +3.3198603633e+03 9.9325658794e+03 7.9829010000e+01 0.0000e+00 1.0000e+00
       22  1    1    2    0    0 -1.1117794471e+02 +8.0082778196e+01 +4.8843251643e+01 1.4546288181e+02 0.0000000000e+00 0.0000e+00 1.0000e+00
       22  1    1    2    0    0 -3.2162567554e+02 -1.3131510115e+02 -2.4033930547e+02 4.2243308667e+02 0.0000000000e+00 0.0000e+00 1.0000e+00
</event>
<event>
 6      1 +1.4834189e-01 1.01527900e+04 7.81653100e-03 6.92958100e-02
  1000022 -1    0    0    0    0 +0.0000000000e+00 +0.0000000000e+00 +4.4721471353e+01 1.0000100000e+04 1.0000000000e+04 0.0000e+00 1.0000e+00
  1000022 -1    0    0    0    0 -0.0000000000e+00 -0.0000000000e+00 -4.4721471353e+01 1.0000100000e+04 1.0000000000e+04 0.0000e+00 1.0000e+00
      -24  1    1    2    0    0 +2.6337942062e+02 -2.6807614368e+02 -6.1718192504e+02 7.2699362958e+02 7.9829010000e+01 0.0000e+00 1.0000e+00
       24  1    1    2    0    0 -9.2527012169e+03 +5.0997567685e+02 +2.6903494870e+03 9.6497102565e+03 7.9829010000e+01 0.0000e+00 1.0000e+00
       22  1    1    2    0    0 -1.9108555382e+02 -5.0716085152e+00 +5.0444098834e+01 1.9769678095e+02 0.0000000000e+00 0.0000e+00 1.0000e+00
       22  1    1    2    0    0 +9.1804073501e+03 -2.3682792466e+02 -2.1236116608e+03 9.4257993330e+03 0.0000000000e+00 0.0000e+00 1.0000e+00
</event>
<event>
 6      1 +1.4834189e-01 1.00338100e+04 7.81653100e-03 6.93668800e-02
  1000022 -1    0    0    0    0 +0.0000000000e+00 +0.0000000000e+00 +4.4721471353e+01 1.0000100000e+04 1.0000000000e+04 0.0000e+00 -1.0000e+00
  1000022 -1    0    0    0    0 -0.0000000000e+00 -0.0000000000e+00 -4.4721471353e+01 1.0000100000e+04 1.0000000000e+04 0.0000e+00 -1.0000e+00
      -24  1    1    2    0    0 +4.6638864401e+02 +3.3786695743e+03 -9.0028931501e+03 9.6276364806e+03 7.9829010000e+01 0.0000e+00 1.0000e+00
       24  1    1    2    0    0 -9.6930969257e+01 -1.3866814747e+03 +3.5136113869e+03 3.7794336578e+03 7.9829010000e+01 0.0000e+00 0.0000e+00
       22  1    1    2    0    0 -7.4707729552e+01 +3.1655937575e+02 -2.4327501430e+02 4.0616968844e+02 0.0000000000e+00 0.0000e+00 1.0000e+00
       22  1    1    2    0    0 -2.9474994520e+02 -2.3085474754e+03 +5.7325567775e+03 6.1869601731e+03 0.0000000000e+00 0.0000e+00 1.0000e+00
</event>
<event>
 6      1 +1.4834189e-01 1.04087200e+04 7.81653100e-03 6.91462200e-02
  1000022 -1    0    0    0    0 +0.0000000000e+00 +0.0000000000e+00 +4.4721471353e+01 1.0000100000e+04 1.0000000000e+04 0.0000e+00 -1.0000e+00
  1000022 -1    0    0    0    0 -0.0000000000e+00 -0.0000000000e+00 -4.4721471353e+01 1.0000100000e+04 1.0000000000e+04 0.0000e+00 -1.0000e+00
      -24  1    1    2    0    0 +7.7670869823e+03 +2.9039475670e+03 -4.3066186986e+03 9.3441901173e+03 7.9829010000e+01 0.0000e+00 -1.0000e+00
       24  1    1    2    0    0 -5.0758439482e+03 -8.2225700356e+02 +6.4190750188e+02 5.1825395587e+03 7.9829010000e+01 0.0000e+00 -1.0000e+00
       22  1    1    2    0    0 -2.8908332200e+03 -2.1892806500e+03 +3.7633945102e+03 5.2261845270e+03 0.0000000000e+00 0.0000e+00 -1.0000e+00
       22  1    1    2    0    0 +1.9959018585e+02 +1.0759008665e+02 -9.8683313450e+01 2.4728579697e+02 0.0000000000e+00 0.0000e+00 1.0000e+00
</event>
<event>
 6      1 +1.4834189e-01 1.00056300e+04 7.81653100e-03 6.93838500e-02
  1000022 -1    0    0    0    0 +0.0000000000e+00 +0.0000000000e+00 +4.4721471353e+01 1.0000100000e+04 1.0000000000e+04 0.0000e+00 1.0000e+00
  1000022 -1    0    0    0    0 -0.0000000000e+00 -0.0000000000e+00 -4.4721471353e+01 1.0000100000e+04 1.0000000000e+04 0.0000e+00 1.0000e+00
      -24  1    1    2    0    0 +1.4900137483e+03 -7.2444151077e+03 +6.4048155368e+03 9.7841568852e+03 7.9829010000e+01 0.0000e+00 -1.0000e+00
       24  1    1    2    0    0 -1.4513242838e+03 +7.2799880006e+03 -6.3471223323e+03 9.7671337678e+03 7.9829010000e+01 0.0000e+00 -1.0000e+00
       22  1    1    2    0    0 +3.2223881854e+01 -1.5958551450e+02 +1.3328967944e+02 2.1040925275e+02 0.0000000000e+00 0.0000e+00 -1.0000e+00
       22  1    1    2    0    0 -7.0913346329e+01 +1.2401262160e+02 -1.9098288395e+02 2.3850009427e+02 0.0000000000e+00 0.0000e+00 -1.0000e+00
</event>
<event>
 6      1 +1.4834189e-01 1.04915300e+04 7.81653100e-03 6.90987400e-02
  1000022 -1    0    0    0    0 +0.0000000000e+00 +0.0000000000e+00 +4.4721471353e+01 1.0000100000e+04 1.0000000000e+04 0.0000e+00 -1.0000e+00
  1000022 -1    0    0    0    0 -0.0000000000e+00 -0.0000000000e+00 -4.4721471353e+01 1.0000100000e+04 1.0000000000e+04 0.0000e+00 -1.0000e+00
      -24  1    1    2    0    0 +6.4456143297e+03 +5.5854358020e+03 -3.3964006728e+03 9.1806833834e+03 7.9829010000e+01 0.0000e+00 1.0000e+00
       24  1    1    2    0    0 -5.6866978769e+03 -6.1973695729e+03 +4.2545755713e+03 9.4262245003e+03 7.9829010000e+01 0.0000e+00 1.0000e+00
       22  1    1    2    0    0 -5.8034983111e+01 -5.0476960065e+01 +2.9685768024e+01 8.2445300565e+01 0.0000000000e+00 0.0000e+00 1.0000e+00
       22  1    1    2    0    0 -7.0088146971e+02 +6.6241073100e+02 -8.8786066656e+02 1.3108468157e+03 0.0000000000e+00 0.0000e+00 -1.0000e+00
</event>
<event>
 6      1 +1.4834189e-01 1.00446300e+04 7.81653100e-03 6.93603700e-02
  1000022 -1    0    0    0    0 +0.0000000000e+00 +0.0000000000e+00 +4.4721471353e+01 1.0000100000e+04 1.0000000000e+04 0.0000e+00 -1.0000e+00
  1000022 -1    0    0    0    0 -0.0000000000e+00 -0.0000000000e+00 -4.4721471353e+01 1.0000100000e+04 1.0000000000e+04 0.0000e+00 -1.0000e+00
      -24  1    1    2    0    0 -3.0354871076e+03 +1.8669338159e+03 +4.5849246879e+02 3.5939131693e+03 7.9829010000e+01 0.0000e+00 1.0000e+00
       24  1    1    2    0    0 +6.6132568798e+03 -3.8472544121e+03 -9.9387257943e+02 7.7156132903e+03 7.9829010000e+01 0.0000e+00 1.0000e+00
       22  1    1    2    0    0 -5.1155111460e+03 +3.7258851011e+03 +6.4804011421e+02 6.3616530918e+03 0.0000000000e+00 0.0000e+00 1.0000e+00
       22  1    1    2    0    0 +1.5377413738e+03 -1.7455645049e+03 -1.1266000357e+02 2.3290204486e+03 0.0000000000e+00 0.0000e+00 1.0000e+00
</event>
<event>
 6      1 +1.4834189e-01 1.00228500e+04 7.81653100e-03 6.93734700e-02
  1000022 -1    0    0    0    0 +0.0000000000e+00 +0.0000000000e+00 +4.4721471353e+01 1.0000100000e+04 1.0000000000e+04 0.0000e+00 -1.0000e+00
  1000022 -1    0    0    0    0 -0.0000000000e+00 -0.0000000000e+00 -4.4721471353e+01 1.0000100000e+04 1.0000000000e+04 0.0000e+00 -1.0000e+00
      -24  1    1    2    0    0 +8.1432671820e+03 -5.2821933977e+03 +1.7854867335e+03 9.8695847447e+03 7.9829010000e+01 0.0000e+00 -1.0000e+00
       24  1    1    2    0    0 -4.1852122790e+02 +4.7241523352e+02 +2.8441780783e+01 6.3680277700e+02 7.9829010000e+01 0.0000e+00 1.0000e+00
       22  1    1    2    0    0 -7.8169056136e+03 +4.8645529971e+03 -1.8248408768e+03 9.3860499391e+03 0.0000000000e+00 0.0000e+00 -1.0000e+00
       22  1    1    2    0    0 +9.2159659563e+01 -5.4774832973e+01 +1.0912362562e+01 1.0776253911e+02 0.0000000000e+00 0.0000e+00 1.0000e+00
</event>
<event>
 6      1 +1.4834189e-01 1.00667900e+04 7.81653100e-03 6.93470800e-02
  1000022 -1    0    0    0    0 +0.0000000000e+00 +0.0000000000e+00 +4.4721471353e+01 1.0000100000e+04 1.0000000000e+04 0.0000e+00 -1.0000e+00
  1000022 -1    0    0    0    0 -0.0000000000e+00 -0.0000000000e+00 -4.4721471353e+01 1.0000100000e+04 1.0000000000e+04 0.0000e+00 -1.0000e+00
      -24  1    1    2    0    0 -8.6324109622e+02 -3.2256026244e+03 -9.3550321533e+03 9.9334131466e+03 7.9829010000e+01 0.0000e+00 -1.0000e+00
       24  1    1    2    0    0 +1.0902028724e+03 +1.0483092944e+03 +3.8292679808e+03 4.1179073107e+03 7.9829010000e+01 0.0000e+00 -1.0000e+00
       22  1    1    2    0    0 +2.7274760602e+01 +5.0371675593e+01 +9.5018809053e+01 1.1094950357e+02 0.0000000000e+00 0.0000e+00 -1.0000e+00
       22  1    1    2    0    0 -2.5423653675e+02 +2.1269216544e+03 +5.4307453634e+03 5.8379300392e+03 0.0000000000e+00 0.0000e+00 -1.0000e+00
</event>
<event>
 6      1 +1.4834189e-01 1.00039700e+04 7.81653100e-03 6.93848600e-02
  1000022 -1    0    0    0    0 +0.0000000000e+00 +0.0000000000e+00 +4.4721471353e+01 1.0000100000e+04 1.0000000000e+04 0.0000e+00 1.0000e+00
  1000022 -1    0    0    0    0 -0.0000000000e+00 -0.0000000000e+00 -4.4721471353e+01 1.0000100000e+04 1.0000000000e+04 0.0000e+00 1.0000e+00
      -24  1    1    2    0    0 -1.8161697632e+02 -4.8840413532e+03 -9.4872181893e+02 4.9792861362e+03 7.9829010000e+01 0.0000e+00 1.0000e+00
       24  1    1    2    0    0 +3.1861891560e+02 +9.7108986143e+03 +2.2867735078e+03 9.9819224430e+03 7.9829010000e+01 0.0000e+00 1.0000e+00
       22  1    1    2    0    0 -1.6697567129e+00 +1.4159222302e+01 +1.2270559825e+00 1.4310042979e+01 0.0000000000e+00 0.0000e+00 1.0000e+00
       22  1    1    2    0    0 -1.3533218256e+02 -4.8410164834e+03 -1.3392787449e+03 5.0246813779e+03 0.0000000000e+00 0.0000e+00 1.0000e+00
</event>
<event>
 6      1 +1.4834189e-01 1.01284100e+04 7.81653100e-03 6.93102900e-02
  1000022 -1    0    0    0    0 +0.0000000000e+00 +0.0000000000e+00 +4.4721471353e+01 1.0000100000e+04 1.0000000000e+04 0.0000e+00 -1.0000e+00
  1000022 -1    0    0    0    0 -0.0000000000e+00 -0.0000000000e+00 -4.4721471353e+01 1.0000100000e+04 1.0000000000e+04 0.0000e+00 -1.0000e+00
      -24  1    1    2    0    0 +6.9070124044e+03 +2.5155766126e+03 -6.5663106215e+03 9.8568632890e+03 7.9829010000e+01 0.0000e+00 1.0000e+00
       24  1    1    2    0    0 -5.8714230059e+03 -2.4940090342e+03 +6.4548441969e+03 9.0755206712e+03 7.9829010000e+01 0.0000e+00 1.0000e+00
       22  1    1    2    0    0 +9.9044509352e+00 +3.5360934505e+00 -1.0586875864e+01 1.4922601844e+01 0.0000000000e+00 0.0000e+00 1.0000e+00
       22  1    1    2    0    0 -1.0454938494e+03 -2.5103671853e+01 +1.2205330051e+02 1.0528934379e+03 0.0000000000e+00 0.0000e+00 1.0000e+00
</event>
<event>
 6      1 +1.4834189e-01 1.02926600e+04 7.81653100e-03 6.92135200e-02
  1000022 -1    0    0    0    0 +0.0000000000e+00 +0.0000000000e+00 +4.4721471353e+01 1.0000100000e+04 1.0000000000e+04 0.0000e+00 -1.0000e+00
  1000022 -1    0    0    0    0 -0.0000000000e+00 -0.0000000000e+00 -4.4721471353e+01 1.0000100000e+04 1.0000000000e+04 0.0000e+00 -1.0000e+00
      -24  1    1    2    0    0 -2.0490826270e+03 +2.0168800510e+03 +4.3777655486e+03 5.2381054420e+03 7.9829010000e+01 0.0000e+00 -1.0000e+00
       24  1    1    2    0    0 +3.6624214711e+03 -2.4319005761e+03 -8.6546241273e+03 9.7075415476e+03 7.9829010000e+01 0.0000e+00 1.0000e+00
       22  1    1    2    0    0 -7.3930556210e+02 +5.4126036763e+02 +2.7532827438e+02 9.5673463321e+02 0.0000000000e+00 0.0000e+00 1.0000e+00
       22  1    1    2    0    0 -8.7403328204e+02 -1.2623984245e+02 +4.0015303043e+03 4.0978183772e+03 0.0000000000e+00 0.0000e+00 1.0000e+00
</event>
<event>
 6      1 +1.4834189e-01 1.04258700e+04 7.81653100e-03 6.91363500e-02
  1000022 -1    0    0    0    0 +0.0000000000e+00 +0.0000000000e+00 +4.4721471353e+01 1.0000100000e+04 1.0000000000e+04 0.0000e+00 -1.0000e+00
  1000022 -1    0    0    0    0 -0.0000000000e+00 -0.0000000000e+00 -4.4721471353e+01 1.0000100000e+04 1.0000000000e+04 0.0000e+00 -1.0000e+00
      -24  1    1    2    0    0 -9.3611477254e+02 +5.2598901821e+03 +8.7923357810e+02 5.4149958403e+03 7.9829010000e+01 0.0000e+00 -1.0000e+00
       24  1    1    2    0    0 -2.6960559143e+02 -7.5927353279e+03 +1.2125479162e+03 7.6940861741e+03 7.9829010000e+01 0.0000e+00 -1.0000e+00
       22  1    1    2    0    0 -8.8851089086e+01 -1.8444249225e+03 +3.5430287544e+02 1.8802468822e+03 0.0000000000e+00 0.0000e+00 -1.0000e+00
       22  1    1    2    0    0 +1.2945714531e+03 +4.1772700683e+03 -2.4460843698e+03 5.0108711033e+03 0.0000000000e+00 0.0000e+00 -1.0000e+00
</event>
<event>
 6      1 +1.4834189e-01 1.01680500e+04 7.81653100e-03 6.92867700e-02
  1000022 -1    0    0    0    0 +0.0000000000e+00 +0.0000000000e+00 +4.4721471353e+01 1.0000100000e+04 1.0000000000e+04 0.0000e+00 1.0000e+00
  1000022 -1    0    0    0    0 -0.0000000000e+00 -0.0000000000e+00 -4.4721471353e+01 1.0000100000e+04 1.0000000000e+04 0.0000e+00 1.0000e+00
      -24  1    1    2    0    0 -8.9258454340e+03 +6.1243187630e+02 -3.2900052533e+03 9.5329059972e+03 7.9829010000e+01 0.0000e+00 -1.0000e+00
       24  1    1    2    0    0 +8.9964889153e+03 -7.6171988372e+02 +3.8920261648e+03 9.8321549176e+03 7.9829010000e+01 0.0000e+00 -1.0000e+00
       22  1    1    2    0    0 +9.8581126346e+00 +7.8563196981e+01 -1.3985553165e+02 1.6071380786e+02 0.0000000000e+00 0.0000e+00 -1.0000e+00
       22  1    1    2    0    0 -8.0501593971e+01 +7.0724810442e+01 -4.6216537986e+02 4.7442527735e+02 0.0000000000e+00 0.0000e+00 -1.0000e+00
</event>
<event>
 6      1 +1.4834189e-01 1.00122600e+04 7.81653100e-03 6.93798600e-02
  1000022 -1    0    0    0    0 +0.0000000000e+00 +0.0000000000e+00 +4.4721471353e+01 1.0000100000e+04 1.0000000000e+04 0.0000e+00 -1.0000e+00
  1000022 -1    0    0    0    0 -0.0000000000e+00 -0.0000000000e+00 -4.4721471353e+01 1.0000100000e+04 1.0000000000e+04 0.0000e+00 -1.0000e+00
      -24  1    1    2    0    0 +9.1700714120e+03 +3.3838513965e+02 +1.5837963294e+03 9.3123304112e+03 7.9829010000e+01 0.0000e+00 -1.0000e+00
       24  1    1    2    0    0 -9.8022130959e+03 -5.0359161465e+02 -1.4604078851e+03 9.9235149999e+03 7.9829010000e+01 0.0000e+00 -1.0000e+00
       22  1    1    2    0    0 -2.4345704362e+01 +1.0349146599e+01 -8.4707002118e+01 8.8741728426e+01 0.0000000000e+00 0.0000e+00 1.0000e+00
       22  1    1    2    0    0 +6.5648738831e+02 +1.5485732840e+02 -3.8681442273e+01 6.7561286040e+02 0.0000000000e+00 0.0000e+00 -1.0000e+00
</event>
<event>
 6      1 +1.4834189e-01 1.00166100e+04 7.81653100e-03 6.93772300e-02
  1000022 -1    0    0    0    0 +0.0000000000e+00 +0.0000000000e+00 +4.4721471353e+01 1.0000100000e+04 1.0000000000e+04 0.0000e+00 1.0000e+00
  1000022 -1    0    0    0    0 -0.0000000000e+00 -0.0000000000e+00 -4.4721471353e+01 1.0000100000e+04 1.0000000000e+04 0.0000e+00 1.0000e+00
      -24  1    1    2    0    0 -1.7315771912e+03 +8.9229788322e+03 +3.7944002425e+03 9.8499622679e+03 7.9829010000e+01 0.0000e+00 1.0000e+00
       24  1    1    2    0    0 +1.7470049301e+03 -8.8992536174e+03 -3.8992823831e+03 9.8721586771e+03 7.9829010000e+01 0.0000e+00 1.0000e+00
       22  1    1    2    0    0 -8.8014095608e+01 +5.7170802568e+01 +1.2944940835e+02 1.6664972552e+02 0.0000000000e+00 0.0000e+00 -1.0000e+00
       22  1    1    2    0    0 +7.2586356727e+01 -8.0896017344e+01 -2.4567267761e+01 1.1142932940e+02 0.0000000000e+00 0.0000e+00 1.0000e+00
</event>
<event>
 6      1 +1.4834189e-01 1.00043000e+04 7.81653100e-03 6.93846600e-02
  1000022 -1    0    0    0    0 +0.0000000000e+00 +0.0000000000e+00 +4.4721471353e+01 1.0000100000e+04 1.0000000000e+04 0.0000e+00 1.0000e+00
  1000022 -1    0    0    0    0 -0.0000000000e+00 -0.0000000000e+00 -4.4721471353e+01 1.0000100000e+04 1.0000000000e+04 0.0000e+00 1.0000e+00
      -24  1    1    2    0    0 +2.4793703384e+03 -1.1827985422e+03 +3.2740810657e+03 4.2746074863e+03 7.9829010000e+01 0.0000e+00 -1.0000e+00
       24  1    1    2    0    0 -6.1562437792e+03 +2.6431854013e+03 -7.3663206076e+03 9.9576512542e+03 7.9829010000e+01 0.0000e+00 -1.0000e+00
       22  1    1    2    0    0 +3.6987132898e+03 -1.4758903668e+03 +4.1195449406e+03 5.7296930889e+03 0.0000000000e+00 0.0000e+00 -1.0000e+00
       22  1    1    2    0    0 -2.1839849057e+01 +1.5503507713e+01 -2.7305398661e+01 3.8248170601e+01 0.0000000000e+00 0.0000e+00 -1.0000e+00
</event>
<event>
 6      1 +1.4834189e-01 1.00010400e+04 7.81653100e-03 6.93866300e-02
  1000022 -1    0    0    0    0 +0.0000000000e+00 +0.0000000000e+00 +4.4721471353e+01 1.0000100000e+04 1.0000000000e+04 0.0000e+00 -1.0000e+00
  1000022 -1    0    0    0    0 -0.0000000000e+00 -0.0000000000e+00 -4.4721471353e+01 1.0000100000e+04 1.0000000000e+04 0.0000e+00 -1.0000e+00
      -24  1    1    2    0    0 -4.4317177862e+03 -8.2098177554e+03 -2.8772953699e+03 9.7635255635e+03 7.9829010000e+01 0.0000e+00 1.0000e+00
       24  1    1    2    0    0 +4.4958313022e+03 +8.3567090415e+03 +2.9494571978e+03 9.9374421022e+03 7.9829010000e+01 0.0000e+00 1.0000e+00
       22  1    1    2    0    0 +3.4732388298e+01 +5.3157282694e+01 +3.5588111441e+00 6.3597960950e+01 0.0000000000e+00 0.0000e+00 1.0000e+00
       22  1    1    2    0    0 -9.8845904319e+01 -2.0004856886e+02 -7.5720639024e+01 2.3563437329e+02 0.0000000000e+00 0.0000e+00 -1.0000e+00
</event>
<event>
 6      1 +1.4834189e-01 1.01510100e+04 7.81653100e-03 6.92968700e-02
  1000022 -1    0    0    0    0 +0.0000000000e+00 +0.0000000000e+00 +4.4721471353e+01 1.0000100000e+04 1.0000000000e+04 0.0000e+00 1.0000e+00
  1000022 -1    0    0    0    0 -0.0000000000e+00 -0.0000000000e+00 -4.4721471353e+01 1.0000100000e+04 1.0000000000e+04 0.0000e+00 1.0000e+00
      -24  1    1    2    0    0 +5.4972385626e+03 +7.9562529010e+03 -3.1524426216e+02 9.6761223460e+03 7.9829010000e+01 0.0000e+00 -1.0000e+00
       24  1    1    2    0    0 -5.3606899772e+03 -7.7005381124e+03 +6.5739131745e+02 9.4060523211e+03 7.9829010000e+01 0.0000e+00 -1.0000e+00
       22  1    1    2    0    0 -2.0937871946e+02 -3.7417741719e+02 +1.1192023034e+02 4.4314142850e+02 0.0000000000e+00 0.0000e+00 -1.0000e+00
       22  1    1    2    0    0 +7.2830134104e+01 +1.1846262855e+02 -4.5406728563e+02 4.7488390442e+02 0.0000000000e+00 0.0000e+00 1.0000e+00
</event>
<event>
 6      1 +1.4834189e-01 1.00107900e+04 7.81653100e-03 6.93807500e-02
  1000022 -1    0    0    0    0 +0.0000000000e+00 +0.0000000000e+00 +4.4721471353e+01 1.0000100000e+04 1.0000000000e+04 0.0000e+00 -1.0000e+00
  1000022 -1    0    0    0    0 -0.0000000000e+00 -0.0000000000e+00 -4.4721471353e+01 1.0000100000e+04 1.0000000000e+04 0.0000e+00 -1.0000e+00
      -24  1    1    2    0    0 +7.3373336885e+02 -1.7532964617e+02 +1.1317468083e+02 7.6699825332e+02 7.9829010000e+01 0.0000e+00 0.0000e+00
       24  1    1    2    0    0 -2.5147415947e+03 +3.2081844367e+02 +4.2277060142e+02 2.5713726712e+03 7.9829010000e+01 0.0000e+00 -1.0000e+00
       22  1    1    2    0    0 +9.0579436783e+03 -1.4567970568e+03 -1.1309359063e+03 9.2437880421e+03 0.0000000000e+00 0.0000e+00 1.0000e+00
       22  1    1    2    0    0 -7.2769354524e+03 +1.3113082593e+03 +5.9499062409e+02 7.4180410333e+03 0.0000000000e+00 0.0000e+00 1.0000e+00
</event>
<event>
 6      1 +1.4834189e-01 1.14435700e+04 7.81653100e-03 6.85826000e-02
  1000022 -1    0    0    0    0 +0.0000000000e+00 +0.0000000000e+00 +4.4721471353e+01 1.0000100000e+04 1.0000000000e+04 0.0000e+00 -1.0000e+00
  1000022 -1    0    0    0    0 -0.0000000000e+00 -0.0000000000e+00 -4.4721471353e+01 1.0000100000e+04 1.0000000000e+04 0.0000e+00 -1.0000e+00
      -24  1    1    2    0    0 +3.7191738845e+03 +5.8849162086e+03 -4.9340382801e+03 8.5332057039e+03 7.9829010000e+01 0.0000e+00 -1.0000e+00
       24  1    1    2    0    0 -1.4130548678e+03 -5.2387193375e+03 +6.5750601380e+03 8.5251799304e+03 7.9829010000e+01 0.0000e+00 -1.0000e+00
       22  1    1    2    0    0 -7.3945121042e+00 -1.2769697675e+01 +2.7770863584e+01 3.1447811564e+01 0.0000000000e+00 0.0000e+00 1.0000e+00
       22  1    1    2    0    0 -2.2987245046e+03 -6.3342717344e+02 -1.6687927215e+03 2.9103665541e+03 0.0000000000e+00 0.0000e+00 -1.0000e+00
</event>
<event>
 6      1 +1.4834189e-01 9.83729000e+03 7.81653100e-03 6.94864600e-02
  1000022 -1    0    0    0    0 +0.0000000000e+00 +0.0000000000e+00 +4.4721471353e+01 1.0000100000e+04 1.0000000000e+04 0.0000e+00 1.0000e+00
  1000022 -1    0    0    0    0 -0.0000000000e+00 -0.0000000000e+00 -4.4721471353e+01 1.0000100000e+04 1.0000000000e+04 0.0000e+00 1.0000e+00
      -24  1    1    2    0    0 -2.9119774413e+02 +1.0981422958e+02 -5.2422918477e+01 3.2553974323e+02 7.9829010000e+01 0.0000e+00 1.0000e+00
       24  1    1    2    0    0 +3.6217942890e+03 -6.9249759745e+02 +9.0238613685e+03 9.7485072428e+03 7.9829010000e+01 0.0000e+00 -1.0000e+00
       22  1    1    2    0    0 -3.3686241803e+03 +6.0117165111e+02 -9.1362367995e+03 9.7560165579e+03 0.0000000000e+00 0.0000e+00 -1.0000e+00
       22  1    1    2    0    0 +3.8027635414e+01 -1.8488283232e+01 +1.6479834948e+02 1.7013645601e+02 0.0000000000e+00 0.0000e+00 -1.0000e+00
</event>
<event>
 6      1 +1.4834189e-01 1.00230700e+04 7.81653100e-03 6.93733400e-02
  1000022 -1    0    0    0    0 +0.0000000000e+00 +0.0000000000e+00 +4.4721471353e+01 1.0000100000e+04 1.0000000000e+04 0.0000e+00 1.0000e+00
  1000022 -1    0    0    0    0 -0.0000000000e+00 -0.0000000000e+00 -4.4721471353e+01 1.0000100000e+04 1.0000000000e+04 0.0000e+00 1.0000e+00
      -24  1    1    2    0    0 -2.6095027948e+03 -6.9801366261e+03 -5.7652663696e+03 9.4221272088e+03 7.9829010000e+01 0.0000e+00 1.0000e+00
       24  1    1    2    0    0 +2.9553065159e+03 +7.3509327439e+03 +6.0635527730e+03 9.9771285302e+03 7.9829010000e+01 0.0000e+00 1.0000e+00
       22  1    1    2    0    0 -3.2892392080e+02 -2.9031103782e+02 -2.6256893239e+02 5.1128650345e+02 0.0000000000e+00 0.0000e+00 1.0000e+00
       22  1    1    2    0    0 -1.6879800311e+01 -8.0485079904e+01 -3.5717470949e+01 8.9657757482e+01 0.0000000000e+00 0.0000e+00 1.0000e+00
</event>
<event>
 6      1 +1.4834189e-01 1.00621200e+04 7.81653100e-03 6.93498800e-02
  1000022 -1    0    0    0    0 +0.0000000000e+00 +0.0000000000e+00 +4.4721471353e+01 1.0000100000e+04 1.0000000000e+04 0.0000e+00 1.0000e+00
  1000022 -1    0    0    0    0 -0.0000000000e+00 -0.0000000000e+00 -4.4721471353e+01 1.0000100000e+04 1.0000000000e+04 0.0000e+00 1.0000e+00
      -24  1    1    2    0    0 -8.0947112658e+03 +4.1005135213e+03 +8.8525117261e+02 9.1174889045e+03 7.9829010000e+01 0.0000e+00 -1.0000e+00
       24  1    1    2    0    0 +5.0114884978e+03 -2.5000904761e+03 -8.0235446501e+02 5.6582342397e+03 7.9829010000e+01 0.0000e+00 -1.0000e+00
       22  1    1    2    0    0 -5.6542030355e+02 +5.5563628272e+02 +5.1370036812e+02 9.4462683985e+02 0.0000000000e+00 0.0000e+00 -1.0000e+00
       22  1    1    2    0    0 +3.6486430715e+03 -2.1560593279e+03 -5.9659707572e+02 4.2798500160e+03 0.0000000000e+00 0.0000e+00 -1.0000e+00
</event>
<event>
 6      1 +1.4834189e-01 7.77027900e+03 7.81653100e-03 7.09452700e-02
  1000022 -1    0    0    0    0 +0.0000000000e+00 +0.0000000000e+00 +4.4721471353e+01 1.0000100000e+04 1.0000000000e+04 0.0000e+00 1.0000e+00
  1000022 -1    0    0    0    0 -0.0000000000e+00 -0.0000000000e+00 -4.4721471353e+01 1.0000100000e+04 1.0000000000e+04 0.0000e+00 1.0000e+00
      -24  1    1    2    0    0 -3.8336667491e+02 +1.8436576093e+02 -4.2438313707e+01 4.3489587552e+02 7.9829010000e+01 0.0000e+00 -1.0000e+00
       24  1    1    2    0    0 -1.1010105745e+03 +2.3549047437e+03 -2.4268999107e+03 3.5572484429e+03 7.9829010000e+01 0.0000e+00 1.0000e+00
       22  1    1    2    0    0 -1.1298154327e+03 -2.2389084305e+03 +8.8010216568e+03 9.1513483201e+03 0.0000000000e+00 0.0000e+00 1.0000e+00
       22  1    1    2    0    0 +2.6141926820e+03 -3.0036207413e+02 -6.3316834324e+03 6.8567073616e+03 0.0000000000e+00 0.0000e+00 1.0000e+00
</event>
<event>
 6      1 +1.4834189e-01 6.66820100e+03 7.81653100e-03 7.19249200e-02
  1000022 -1    0    0    0    0 +0.0000000000e+00 +0.0000000000e+00 +4.4721471353e+01 1.0000100000e+04 1.0000000000e+04 0.0000e+00 -1.0000e+00
  1000022 -1    0    0    0    0 -0.0000000000e+00 -0.0000000000e+00 -4.4721471353e+01 1.0000100000e+04 1.0000000000e+04 0.0000e+00 -1.0000e+00
      -24  1    1    2    0    0 +8.7903922516e+03 +9.3133819507e+01 +1.1962215747e+03 8.8722594964e+03 7.9829010000e+01 0.0000e+00 1.0000e+00
       24  1    1    2    0    0 -3.2969125788e+03 -5.0627669223e+02 -3.6376475312e+03 4.9360714008e+03 7.9829010000e+01 0.0000e+00 1.0000e+00
       22  1    1    2    0    0 -4.9204154993e+03 +8.1494184083e+02 +2.2049273583e+03 5.4531021946e+03 0.0000000000e+00 0.0000e+00 1.0000e+00
       22  1    1    2    0    0 -5.7306417339e+02 -4.0179896811e+02 +2.3649859829e+02 7.3876690816e+02 0.0000000000e+00 0.0000e+00 1.0000e+00
</event>
<event>
 6      1 +1.4834189e-01 9.59387800e+03 7.81653100e-03 6.96385200e-02
  1000022 -1    0    0    0    0 +0.0000000000e+00 +0.0000000000e+00 +4.4721471353e+01 1.0000100000e+04 1.0000000000e+04 0.0000e+00 1.0000e+00
  1000022 -1    0    0    0    0 -0.0000000000e+00 -0.0000000000e+00 -4.4721471353e+01 1.0000100000e+04 1.0000000000e+04 0.0000e+00 1.0000e+00
      -24  1    1    2    0    0 -2.5543396377e+03 +7.2126602776e+03 +5.9938236172e+03 9.7200521341e+03 7.9829010000e+01 0.0000e+00 -1.0000e+00
       24  1    1    2    0    0 +1.0782551959e+02 -2.4573753549e+02 +9.5420744754e+01 2.9578889160e+02 7.9829010000e+01 0.0000e+00 -1.0000e+00
       22  1    1    2    0    0 +4.0243333637e+02 -1.9700674707e+02 +2.2722153786e+02 5.0238817252e+02 0.0000000000e+00 0.0000e+00 1.0000e+00
       22  1    1    2    0    0 +2.0440807817e+03 -6.7699159950e+03 -6.3164658998e+03 9.4819708018e+03 0.0000000000e+00 0.0000e+00 -1.0000e+00
</event>
<event>
 6      1 +1.4834189e-01 1.01709900e+04 7.81653100e-03 6.92850300e-02
  1000022 -1    0    0    0    0 +0.0000000000e+00 +0.0000000000e+00 +4.4721471353e+01 1.0000100000e+04 1.0000000000e+04 0.0000e+00 -1.0000e+00
  1000022 -1    0    0    0    0 -0.0000000000e+00 -0.0000000000e+00 -4.4721471353e+01 1.0000100000e+04 1.0000000000e+04 0.0000e+00 -1.0000e+00
      -24  1    1    2    0    0 +7.9992180984e+03 -2.7540002748e+03 -2.8996139108e+03 8.9434971460e+03 7.9829010000e+01 0.0000e+00 -1.0000e+00
       24  1    1    2    0    0 -4.0056535443e+03 +3.6840755813e+02 +2.2626973933e+03 4.6159675703e+03 7.9829010000e+01 0.0000e+00 -1.0000e+00
       22  1    1    2    0    0 -4.7819024890e+03 +2.6728662687e+03 +9.2060285815e+02 5.5550261140e+03 0.0000000000e+00 0.0000e+00 -1.0000e+00
       22  1    1    2    0    0 +7.8833793491e+02 -2.8727355205e+02 -2.8368634069e+02 8.8570916966e+02 0.0000000000e+00 0.0000e+00 1.0000e+00
</event>
<event>
 6      1 +1.4834189e-01 1.00025800e+04 7.81653100e-03 6.93857000e-02
  1000022 -1    0    0    0    0 +0.0000000000e+00 +0.0000000000e+00 +4.4721471353e+01 1.0000100000e+04 1.0000000000e+04 0.0000e+00 1.0000e+00
  1000022 -1    0    0    0    0 -0.0000000000e+00 -0.0000000000e+00 -4.4721471353e+01 1.0000100000e+04 1.0000000000e+04 0.0000e+00 1.0000e+00
      -24  1    1    2    0    0 -7.7964043353e+02 +2.9915300132e+02 +1.0966631009e+03 1.3807151594e+03 7.9829010000e+01 0.0000e+00 1.0000e+00
       24  1    1    2    0    0 +5.6421377536e+03 -2.7486565057e+03 -7.7041643824e+03 9.9372708788e+03 7.9829010000e+01 0.0000e+00 1.0000e+00
       22  1    1    2    0    0 -4.8943584690e+03 +2.4633231942e+03 +6.6568602746e+03 8.6218614404e+03 0.0000000000e+00 0.0000e+00 1.0000e+00
       22  1    1    2    0    0 +3.1861148965e+01 -1.3819689832e+01 -4.9358993002e+01 6.0352521328e+01 0.0000000000e+00 0.0000e+00 1.0000e+00
</event>
<event>
 6      1 +1.4834189e-01 1.00014000e+04 7.81653100e-03 6.93864100e-02
  1000022 -1    0    0    0    0 +0.0000000000e+00 +0.0000000000e+00 +4.4721471353e+01 1.0000100000e+04 1.0000000000e+04 0.0000e+00 1.0000e+00
  1000022 -1    0    0    0    0 -0.0000000000e+00 -0.0000000000e+00 -4.4721471353e+01 1.0000100000e+04 1.0000000000e+04 0.0000e+00 1.0000e+00
      -24  1    1    2    0    0 +3.3294581992e+02 +2.2945943509e+03 -9.7259234064e+03 9.9987986744e+03 7.9829010000e+01 0.0000e+00 1.0000e+00
       24  1    1    2    0    0 -3.5544611962e+02 -2.2311375831e+03 +9.3809708306e+03 9.6495234729e+03 7.9829010000e+01 0.0000e+00 1.0000e+00
       22  1    1    2    0    0 +4.2508199194e+00 -1.5839473272e+01 +5.2152765598e+01 5.4670552796e+01 0.0000000000e+00 0.0000e+00 -1.0000e+00
       22  1    1    2    0    0 +1.8249479774e+01 -4.7617294611e+01 +2.9279981014e+02 2.9720729984e+02 0.0000000000e+00 0.0000e+00 1.0000e+00
</event>
<event>
 6      1 +1.4834189e-01 1.00031000e+04 7.81653100e-03 6.93853800e-02
  1000022 -1    0    0    0    0 +0.0000000000e+00 +0.0000000000e+00 +4.4721471353e+01 1.0000100000e+04 1.0000000000e+04 0.0000e+00 -1.0000e+00
  1000022 -1    0    0    0    0 -0.0000000000e+00 -0.0000000000e+00 -4.4721471353e+01 1.0000100000e+04 1.0000000000e+04 0.0000e+00 -1.0000e+00
      -24  1    1    2    0    0 -7.7296601878e+03 -4.7020322855e+03 +4.1667394076e+03 9.9611668089e+03 7.9829010000e+01 0.0000e+00 -1.0000e+00
       24  1    1    2    0    0 +7.7086910821e+03 +4.6510976418e+03 -4.0924597395e+03 9.8899558575e+03 7.9829010000e+01 0.0000e+00 -1.0000e+00
       22  1    1    2    0    0 -3.4601104814e+01 -8.7690404727e+00 +4.1352383560e+00 3.5933726796e+01 0.0000000000e+00 0.0000e+00 1.0000e+00
       22  1    1    2    0    0 +5.5570210565e+01 +5.9703684185e+01 -7.8414906469e+01 1.1314360682e+02 0.0000000000e+00 0.0000e+00 1.0000e+00
</event>
<event>
 6      1 +1.4834189e-01 1.00001800e+04 7.81653100e-03 6.93871500e-02
  1000022 -1    0    0    0    0 +0.0000000000e+00 +0.0000000000e+00 +4.4721471353e+01 1.0000100000e+04 1.0000000000e+04 0.0000e+00 -1.0000e+00
  1000022 -1    0    0    0    0 -0.0000000000e+00 -0.0000000000e+00 -4.4721471353e+01 1.0000100000e+04 1.0000000000e+04 0.0000e+00 -1.0000e+00
      -24  1    1    2    0    0 +5.2337664770e+03 -1.3312454032e+03 -8.0792241865e+03 9.7182694954e+03 7.9829010000e+01 0.0000e+00 -1.0000e+00
       24  1    1    2    0    0 -2.8273820099e+03 +6.8412414185e+02 +4.3183252838e+03 5.2073429692e+03 7.9829010000e+01 0.0000e+00 -1.0000e+00
       22  1    1    2    0    0 -2.5485594331e+03 +7.0707342534e+02 +3.9968318856e+03 4.7926791187e+03 0.0000000000e+00 0.0000e+00 -1.0000e+00
       22  1    1    2    0    0 +1.4217496600e+02 -5.9952164041e+01 -2.3593298297e+02 2.8190841666e+02 0.0000000000e+00 0.0000e+00 1.0000e+00
</event>
<event>
 6      1 +1.4834189e-01 1.06699900e+04 7.81653100e-03 6.89979000e-02
  1000022 -1    0    0    0    0 +0.0000000000e+00 +0.0000000000e+00 +4.4721471353e+01 1.0000100000e+04 1.0000000000e+04 0.0000e+00 1.0000e+00
  1000022 -1    0    0    0    0 -0.0000000000e+00 -0.0000000000e+00 -4.4721471353e+01 1.0000100000e+04 1.0000000000e+04 0.0000e+00 1.0000e+00
      -24  1    1    2    0    0 +6.1826293161e+03 -5.1801936254e+03 -4.4624433271e+03 9.2184100785e+03 7.9829010000e+01 0.0000e+00 1.0000e+00
       24  1    1    2    0    0 -5.7399370549e+01 +4.5329659521e+01 +8.3463054332e+01 1.3670485744e+02 7.9829010000e+01 0.0000e+00 1.0000e+00
       22  1    1    2    0    0 -7.0889832047e+03 +4.0617986705e+03 +4.2152864679e+03 9.1935048443e+03 0.0000000000e+00 0.0000e+00 1.0000e+00
       22  1    1    2    0    0 +9.6375325909e+02 +1.0730652954e+03 +1.6369380484e+02 1.4515802197e+03 0.0000000000e+00 0.0000e+00 -1.0000e+00
</event>
<event>
 6      1 +1.4834189e-01 1.01330600e+04 7.81653100e-03 6.93075300e-02
  1000022 -1    0    0    0    0 +0.0000000000e+00 +0.0000000000e+00 +4.4721471353e+01 1.0000100000e+04 1.0000000000e+04 0.0000e+00 1.0000e+00
  1000022 -1    0    0    0    0 -0.0000000000e+00 -0.0000000000e+00 -4.4721471353e+01 1.0000100000e+04 1.0000000000e+04 0.0000e+00 1.0000e+00
      -24  1    1    2    0    0 +2.1223255888e+03 +8.3907546802e+03 -4.3952543916e+03 9.7074025283e+03 7.9829010000e+01 0.0000e+00 1.0000e+00
       24  1    1    2    0    0 -2.3238706090e+03 -8.4352010613e+03 +3.9898767492e+03 9.6165732304e+03 7.9829010000e+01 0.0000e+00 1.0000e+00
       22  1    1    2    0    0 +3.0911844678e+01 +1.3872840101e+02 -7.2904230450e+01 1.5973771692e+02 0.0000000000e+00 0.0000e+00 -1.0000e+00
       22  1    1    2    0    0 +1.7063317550e+02 -9.4282019959e+01 +4.7828187290e+02 5.1648652433e+02 0.0000000000e+00 0.0000e+00 -1.0000e+00
</event>
<event>
 6      1 +1.4834189e-01 1.00793400e+04 7.81653100e-03 6.93395700e-02
  1000022 -1    0    0    0    0 +0.0000000000e+00 +0.0000000000e+00 +4.4721471353e+01 1.0000100000e+04 1.0000000000e+04 0.0000e+00 -1.0000e+00
  1000022 -1    0    0    0    0 -0.0000000000e+00 -0.0000000000e+00 -4.4721471353e+01 1.0000100000e+04 1.0000000000e+04 0.0000e+00 -1.0000e+00
      -24  1    1    2    0    0 -7.3843850207e+03 -5.8863949624e+03 +2.3398205303e+03 9.7293329973e+03 7.9829010000e+01 0.0000e+00 1.0000e+00
       24  1    1    2    0    0 +7.3878688376e+03 +6.2158343647e+03 -2.2803071456e+03 9.9208556164e+03 7.9829010000e+01 0.0000e+00 1.0000e+00
       22  1    1    2    0    0 -2.4773798755e+01 -1.9439767351e+01 +6.9611358407e+00 3.2250629011e+01 0.0000000000e+00 0.0000e+00 1.0000e+00
       22  1    1    2    0    0 +2.1289981822e+01 -3.0999963500e+02 -6.6474520584e+01 3.1776075735e+02 0.0000000000e+00 0.0000e+00 -1.0000e+00
</event>
<event>
 6      1 +1.4834189e-01 1.13051200e+04 7.81653100e-03 6.86544600e-02
  1000022 -1    0    0    0    0 +0.0000000000e+00 +0.0000000000e+00 +4.4721471353e+01 1.0000100000e+04 1.0000000000e+04 0.0000e+00 -1.0000e+00
  1000022 -1    0    0    0    0 -0.0000000000e+00 -0.0000000000e+00 -4.4721471353e+01 1.0000100000e+04 1.0000000000e+04 0.0000e+00 -1.0000e+00
      -24  1    1    2    0    0 -2.2705857611e+03 +6.3735994723e+03 -4.9521075506e+03 8.3849908644e+03 7.9829010000e+01 0.0000e+00 1.0000e+00
       24  1    1    2    0    0 +1.5459879449e+03 -7.9433351013e+03 +3.1798455749e+03 8.6950814722e+03 7.9829010000e+01 0.0000e+00 1.0000e+00
       22  1    1    2    0    0 +3.3232298928e+02 +1.3182250362e+03 +1.9865925967e+03 2.4072195497e+03 0.0000000000e+00 0.0000e+00 1.0000e+00
       22  1    1    2    0    0 +3.9227482689e+02 +2.5151059277e+02 -2.1433062097e+02 5.1290811377e+02 0.0000000000e+00 0.0000e+00 1.0000e+00
</event>
<event>
 6      1 +1.4834189e-01 1.00044400e+04 7.81653100e-03 6.93845700e-02
  1000022 -1    0    0    0    0 +0.0000000000e+00 +0.0000000000e+00 +4.4721471353e+01 1.0000100000e+04 1.0000000000e+04 0.0000e+00 -1.0000e+00
  1000022 -1    0    0    0    0 -0.0000000000e+00 -0.0000000000e+00 -4.4721471353e+01 1.0000100000e+04 1.0000000000e+04 0.0000e+00 -1.0000e+00
      -24  1    1    2    0    0 +7.8073516757e+03 -5.7990106091e+03 +2.1073463114e+03 9.9514092158e+03 7.9829010000e+01 0.0000e+00 1.0000e+00
       24  1    1    2    0    0 -7.8375216664e+03 +5.8378510392e+03 -2.0979994592e+03 9.9957603528e+03 7.9829010000e+01 0.0000e+00 1.0000e+00
       22  1    1    2    0    0 +4.5217537298e+00 -1.5133277323e+01 +2.8224527270e+00 1.6044580977e+01 0.0000000000e+00 0.0000e+00 1.0000e+00
       22  1    1    2    0    0 +2.5648236953e+01 -2.3707152853e+01 -1.2169304894e+01 3.6985850494e+01 0.0000000000e+00 0.0000e+00 1.0000e+00
</event>
<event>
 6      1 +1.4834189e-01 1.00009500e+04 7.81653100e-03 6.93866800e-02
  1000022 -1    0    0    0    0 +0.0000000000e+00 +0.0000000000e+00 +4.4721471353e+01 1.0000100000e+04 1.0000000000e+04 0.0000e+00 -1.0000e+00
  1000022 -1    0    0    0    0 -0.0000000000e+00 -0.0000000000e+00 -4.4721471353e+01 1.0000100000e+04 1.0000000000e+04 0.0000e+00 -1.0000e+00
      -24  1    1    2    0    0 +2.3970398395e+03 -5.0301676697e+03 -6.5665768291e+03 8.6124729724e+03 7.9829010000e+01 0.0000e+00 -1.0000e+00
       24  1    1    2    0    0 -2.8439524983e+03 +5.8402809724e+03 +7.5411722880e+03 9.9535219796e+03 7.9829010000e+01 0.0000e+00 -1.0000e+00
       22  1    1    2    0    0 +4.6185613018e+02 -8.2930025193e+02 -1.0133203446e+03 1.3884769043e+03 0.0000000000e+00 0.0000e+00 -1.0000e+00
       22  1    1    2    0    0 -1.4943471391e+01 +1.9186949233e+01 +3.8724885689e+01 4.5728143738e+01 0.0000000000e+00 0.0000e+00 1.0000e+00
</event>
<event>
 6      1 +1.4834189e-01 1.00038800e+04 7.81653100e-03 6.93849100e-02
  1000022 -1    0    0    0    0 +0.0000000000e+00 +0.0000000000e+00 +4.4721471353e+01 1.0000100000e+04 1.0000000000e+04 0.0000e+00 1.0000e+00
  1000022 -1    0    0    0    0 -0.0000000000e+00 -0.0000000000e+00 -4.4721471353e+01 1.0000100000e+04 1.0000000000e+04 0.0000e+00 1.0000e+00
      -24  1    1    2    0    0 -2.1769321234e+03 +9.5898421424e+03 -5.8814690857e+02 9.8517204204e+03 7.9829010000e+01 0.0000e+00 1.0000e+00
       24  1    1    2    0    0 +2.1619951449e+03 -9.7126181273e+03 +5.6671558992e+02 9.9667804794e+03 7.9829010000e+01 0.0000e+00 1.0000e+00
       22  1    1    2    0    0 +8.0144237352e+00 -2.8189041102e+01 +3.6940795124e+00 2.9538098272e+01 0.0000000000e+00 0.0000e+00 -1.0000e+00
       22  1    1    2    0    0 +6.9225547013e+00 +1.5096502606e+02 +1.7737239139e+01 1.5216100193e+02 0.0000000000e+00 0.0000e+00 1.0000e+00
</event>
<event>
 6      1 +1.4834189e-01 1.00002300e+04 7.81653100e-03 6.93871200e-02
  1000022 -1    0    0    0    0 +0.0000000000e+00 +0.0000000000e+00 +4.4721471353e+01 1.0000100000e+04 1.0000000000e+04 0.0000e+00 -1.0000e+00
  1000022 -1    0    0    0    0 -0.0000000000e+00 -0.0000000000e+00 -4.4721471353e+01 1.0000100000e+04 1.0000000000e+04 0.0000e+00 -1.0000e+00
      -24  1    1    2    0    0 -5.2814447474e+03 -5.2319894788e+03 +5.4645866302e+03 9.2268874620e+03 7.9829010000e+01 0.0000e+00 1.0000e+00
       24  1    1    2    0    0 +5.1702337529e+03 +5.1121445064e+03 -5.3196644622e+03 9.0094695279e+03 7.9829010000e+01 0.0000e+00 1.0000e+00
       22  1    1    2    0    0 +5.5059368484e+02 +5.6301746752e+02 -6.0121401077e+02 9.9075746843e+02 0.0000000000e+00 0.0000e+00 1.0000e+00
       22  1    1    2    0    0 -4.3938269036e+02 -4.4317249508e+02 +4.5629184276e+02 7.7308554168e+02 0.0000000000e+00 0.0000e+00 1.0000e+00
</event>
<event>
 6      1 +1.4834189e-01 1.03027800e+04 7.81653100e-03 6.92076100e-02
  1000022 -1    0    0    0    0 +0.0000000000e+00 +0.0000000000e+00 +4.4721471353e+01 1.0000100000e+04 1.0000000000e+04 0.0000e+00 -1.0000e+00
  1000022 -1    0    0    0    0 -0.0000000000e+00 -0.0000000000e+00 -4.4721471353e+01 1.0000100000e+04 1.0000000000e+04 0.0000e+00 -1.0000e+00
      -24  1    1    2    0    0 -2.7660059076e+03 +1.5924223825e+03 -7.3936099360e+03 8.0534736779e+03 7.9829010000e+01 0.0000e+00 -1.0000e+00
       24  1    1    2    0    0 +3.2553069400e+03 -5.2326140932e+02 +9.1193627097e+03 9.6974210323e+03 7.9829010000e+01 0.0000e+00 -1.0000e+00
       22  1    1    2    0    0 -1.8757735910e+02 +9.1047577422e+01 -4.6489187500e+02 5.0950896209e+02 0.0000000000e+00 0.0000e+00 1.0000e+00
       22  1    1    2    0    0 -3.0172367337e+02 -1.1602085506e+03 -1.2608608987e+03 1.7397963277e+03 0.0000000000e+00 0.0000e+00 1.0000e+00
</event>
<event>
 6      1 +1.4834189e-01 1.01483400e+04 7.81653100e-03 6.92984600e-02
  1000022 -1    0    0    0    0 +0.0000000000e+00 +0.0000000000e+00 +4.4721471353e+01 1.0000100000e+04 1.0000000000e+04 0.0000e+00 -1.0000e+00
  1000022 -1    0    0    0    0 -0.0000000000e+00 -0.0000000000e+00 -4.4721471353e+01 1.0000100000e+04 1.0000000000e+04 0.0000e+00 -1.0000e+00
      -24  1    1    2    0    0 -2.1858197994e+03 +6.8326443458e+03 +5.7597672474e+02 7.1972882956e+03 7.9829010000e+01 0.0000e+00 1.0000e+00
       24  1    1    2    0    0 +1.2730999825e+03 -6.0225609388e+03 -4.1705448079e+02 6.1702780275e+03 7.9829010000e+01 0.0000e+00 1.0000e+00
       22  1    1    2    0    0 +1.7455836595e+02 -3.6613340204e+03 -3.4382384839e+02 3.6815828485e+03 0.0000000000e+00 0.0000e+00 1.0000e+00
       22  1    1    2    0    0 +7.3816145102e+02 +2.8512506134e+03 +1.8490160444e+02 2.9510508283e+03 0.0000000000e+00 0.0000e+00 1.0000e+00
</event>
<event>
 6      1 +1.4834189e-01 1.00116000e+04 7.81653100e-03 6.93802600e-02
  1000022 -1    0    0    0    0 +0.0000000000e+00 +0.0000000000e+00 +4.4721471353e+01 1.0000100000e+04 1.0000000000e+04 0.0000e+00 1.0000e+00
  1000022 -1    0    0    0    0 -0.0000000000e+00 -0.0000000000e+00 -4.4721471353e+01 1.0000100000e+04 1.0000000000e+04 0.0000e+00 1.0000e+00
      -24  1    1    2    0    0 -6.8784249790e+03 +1.2193043675e+03 -7.1230672148e+03 9.9771685637e+03 7.9829010000e+01 0.0000e+00 -1.0000e+00
       24  1    1    2    0    0 +6.7763838623e+03 -1.2366418849e+03 +7.0977715484e+03 9.8910765352e+03 7.9829010000e+01 0.0000e+00 -1.0000e+00
       22  1    1    2    0    0 +1.9306675411e+01 +1.1632735081e+01 -2.6024687867e+01 3.4428950310e+01 0.0000000000e+00 0.0000e+00 1.0000e+00
       22  1    1    2    0    0 +8.2734441228e+01 +5.7047822996e+00 +5.1320354276e+01 9.7525950749e+01 0.0000000000e+00 0.0000e+00 -1.0000e+00
</event>
<event>
 6      1 +1.4834189e-01 9.88413400e+03 7.81653100e-03 6.94577000e-02
  1000022 -1    0    0    0    0 +0.0000000000e+00 +0.0000000000e+00 +4.4721471353e+01 1.0000100000e+04 1.0000000000e+04 0.0000e+00 -1.0000e+00
  1000022 -1    0    0    0    0 -0.0000000000e+00 -0.0000000000e+00 -4.4721471353e+01 1.0000100000e+04 1.0000000000e+04 0.0000e+00 -1.0000e+00
      -24  1    1    2    0    0 +5.5739079895e+03 -7.6630304920e+03 -9.4574651292e+02 9.5231977683e+03 7.9829010000e+01 0.0000e+00 -1.0000e+00
       24  1    1    2    0    0 -1.5854071319e+02 -1.8305043788e+02 -1.0109964608e+02 2.7429259891e+02 7.9829010000e+01 0.0000e+00 -1.0000e+00
       22  1    1    2    0    0 +2.4165577679e+02 -1.5670101343e+02 -1.5815098991e+02 3.2857945413e+02 0.0000000000e+00 0.0000e+00 1.0000e+00
       22  1    1    2    0    0 -5.6570230531e+03 +8.0027819433e+03 +1.2049971489e+03 9.8741301786e+03 0.0000000000e+00 0.0000e+00 -1.0000e+00
</event>
<event>
 6      1 +1.4834189e-01 1.00001400e+04 7.81653100e-03 6.93871700e-02
  1000022 -1    0    0    0    0 +0.0000000000e+00 +0.0000000000e+00 +4.4721471353e+01 1.0000100000e+04 1.0000000000e+04 0.0000e+00 -1.0000e+00
  1000022 -1    0    0    0    0 -0.0000000000e+00 -0.0000000000e+00 -4.4721471353e+01 1.0000100000e+04 1.0000000000e+04 0.0000e+00 -1.0000e+00
      -24  1    1    2    0    0 -6.7162586339e+03 +6.5051301536e+03 +3.4618608384e+03 9.9707422737e+03 7.9829010000e+01 0.0000e+00 1.0000e+00
       24  1    1    2    0    0 +6.7248673394e+03 -6.5158952228e+03 -3.4691370742e+03 9.9860911270e+03 7.9829010000e+01 0.0000e+00 1.0000e+00
       22  1    1    2    0    0 +1.0522634052e+01 -8.5012070725e+00 -3.7871435847e+00 1.4047733113e+01 0.0000000000e+00 0.0000e+00 -1.0000e+00
       22  1    1    2    0    0 -1.9131339564e+01 +1.9266276236e+01 +1.1063379377e+01 2.9318866226e+01 0.0000000000e+00 0.0000e+00 1.0000e+00
</event>
<event>
 6      1 +1.4834189e-01 1.02380000e+04 7.81653100e-03 6.92455200e-02
  1000022 -1    0    0    0    0 +0.0000000000e+00 +0.0000000000e+00 +4.4721471353e+01 1.0000100000e+04 1.0000000000e+04 0.0000e+00 -1.0000e+00
  1000022 -1    0    0    0    0 -0.0000000000e+00 -0.0000000000e+00 -4.4721471353e+01 1.0000100000e+04 1.0000000000e+04 0.0000e+00 -1.0000e+00
      -24  1    1    2    0    0 +8.5085701252e+03 -4.7344073768e+03 +5.2121094570e+02 9.7513287457e+03 7.9829010000e+01 0.0000e+00 1.0000e+00
       24  1    1    2    0    0 -8.6007101028e+03 +4.0701625372e+03 -2.7269868822e+02 9.5194104123e+03 7.9829010000e+01 0.0000e+00 1.0000e+00
       22  1    1    2    0    0 +8.2476317498e+01 +6.6921964153e+02 -2.4842807252e+02 7.1859152428e+02 0.0000000000e+00 0.0000e+00 -1.0000e+00
       22  1    1    2    0    0 +9.6636600857e+00 -4.9748019708e+00 -8.4184969087e-02 1.0869317734e+01 0.0000000000e+00 0.0000e+00 -1.0000e+00
</event>
<event>
 6      1 +1.4834189e-01 6.00469800e+03 7.81653100e-03 7.26121900e-02
  1000022 -1    0    0    0    0 +0.0000000000e+00 +0.0000000000e+00 +4.4721471353e+01 1.0000100000e+04 1.0000000000e+04 0.0000e+00 1.0000e+00
  1000022 -1    0    0    0    0 -0.0000000000e+00 -0.0000000000e+00 -4.4721471353e+01 1.0000100000e+04 1.0000000000e+04 0.0000e+00 1.0000e+00
      -24  1    1    2    0    0 +2.1448902922e+02 +2.5478879938e+03 -5.8828137884e+03 6.4149520273e+03 7.9829010000e+01 0.0000e+00 1.0000e+00
       24  1    1    2    0    0 +4.6589679970e+03 -3.6709437080e+03 +5.8661486312e+03 8.3426544300e+03 7.9829010000e+01 0.0000e+00 1.0000e+00
       22  1    1    2    0    0 +7.9948124773e+01 -1.0848220288e+02 +3.1391569278e+01 1.3836734304e+02 0.0000000000e+00 0.0000e+00 -1.0000e+00
       22  1    1    2    0    0 -4.9534051510e+03 +1.2315379171e+03 -1.4726412098e+01 5.1042261997e+03 0.0000000000e+00 0.0000e+00 -1.0000e+00
</event>
<event>
 6      1 +1.4834189e-01 1.00042700e+04 7.81653100e-03 6.93846800e-02
  1000022 -1    0    0    0    0 +0.0000000000e+00 +0.0000000000e+00 +4.4721471353e+01 1.0000100000e+04 1.0000000000e+04 0.0000e+00 -1.0000e+00
  1000022 -1    0    0    0    0 -0.0000000000e+00 -0.0000000000e+00 -4.4721471353e+01 1.0000100000e+04 1.0000000000e+04 0.0000e+00 -1.0000e+00
      -24  1    1    2    0    0 -1.8635549378e+03 +8.4914445839e+03 -4.8390001168e+03 9.9498624578e+03 7.9829010000e+01 0.0000e+00 -1.0000e+00
       24  1    1    2    0    0 +1.8552055775e+03 -8.5274462289e+03 +4.8547392192e+03 9.9866907671e+03 7.9829010000e+01 0.0000e+00 -1.0000e+00
       22  1    1    2    0    0 -3.7975552579e+00 +3.6046693537e+01 -2.8440300706e+01 4.6072076632e+01 0.0000000000e+00 0.0000e+00 -1.0000e+00
       22  1    1    2    0    0 +1.2146915552e+01 -4.5048540632e-02 +1.2701198379e+01 1.7574698491e+01 0.0000000000e+00 0.0000e+00 1.0000e+00
</event>
<event>
 6      1 +1.4834189e-01 1.00068200e+04 7.81653100e-03 6.93831400e-02
  1000022 -1    0    0    0    0 +0.0000000000e+00 +0.0000000000e+00 +4.4721471353e+01 1.0000100000e+04 1.0000000000e+04 0.0000e+00 -1.0000e+00
  1000022 -1    0    0    0    0 -0.0000000000e+00 -0.0000000000e+00 -4.4721471353e+01 1.0000100000e+04 1.0000000000e+04 0.0000e+00 -1.0000e+00
      -24  1    1    2    0    0 -6.8458478427e+02 +3.0671695228e+02 +7.9156577943e+01 7.5853150913e+02 7.9829010000e+01 0.0000e+00 -1.0000e+00
       24  1    1    2    0    0 +7.8910103277e+03 -5.6028637203e+03 -2.3566624531e+03 9.9609415443e+03 7.9829010000e+01 0.0000e+00 1.0000e+00
       22  1    1    2    0    0 -7.2372514732e+03 +5.2625434105e+03 +2.2825823003e+03 9.2348445570e+03 0.0000000000e+00 0.0000e+00 1.0000e+00
       22  1    1    2    0    0 +3.0825929820e+01 +3.3603357433e+01 -5.0764251220e+00 4.5882389564e+01 0.0000000000e+00 0.0000e+00 -1.0000e+00
</event>
<event>
 6      1 +1.4834189e-01 1.00130400e+04 7.81653100e-03 6.93793800e-02
  1000022 -1    0    0    0    0 +0.0000000000e+00 +0.0000000000e+00 +4.4721471353e+01 1.0000100000e+04 1.0000000000e+04 0.0000e+00 1.0000e+00
  1000022 -1    0    0    0    0 -0.0000000000e+00 -0.0000000000e+00 -4.4721471353e+01 1.0000100000e+04 1.0000000000e+04 0.0000e+00 1.0000e+00
      -24  1    1    2    0    0 +3.9658213261e+03 -5.9569549691e+03 +6.9286481918e+03 9.9612042310e+03 7.9829010000e+01 0.0000e+00 -1.0000e+00
       24  1    1    2    0    0 -3.9156393996e+03 +5.6741153825e+03 -6.5049450659e+03 9.4788448802e+03 7.9829010000e+01 0.0000e+00 -1.0000e+00
       22  1    1    2    0    0 -6.2919944326e+01 +3.0150373899e+02 -4.3646787180e+02 5.3419811599e+02 0.0000000000e+00 0.0000e+00 1.0000e+00
       22  1    1    2    0    0 +1.2738017759e+01 -1.8664152368e+01 +1.2764745892e+01 2.5952772833e+01 0.0000000000e+00 0.0000e+00 1.0000e+00
</event>
<event>
 6      1 +1.4834189e-01 1.01254200e+04 7.81653100e-03 6.93120700e-02
  1000022 -1    0    0    0    0 +0.0000000000e+00 +0.0000000000e+00 +4.4721471353e+01 1.0000100000e+04 1.0000000000e+04 0.0000e+00 1.0000e+00
  1000022 -1    0    0    0    0 -0.0000000000e+00 -0.0000000000e+00 -4.4721471353e+01 1.0000100000e+04 1.0000000000e+04 0.0000e+00 1.0000e+00
      -24  1    1    2    0    0 +6.5063835570e+03 +4.7905402909e+03 +4.4316967122e+03 9.2156720693e+03 7.9829010000e+01 0.0000e+00 -1.0000e+00
       24  1    1    2    0    0 -6.6828030128e+03 -4.5428605650e+03 -3.9116338435e+03 8.9780114845e+03 7.9829010000e+01 0.0000e+00 -1.0000e+00
       22  1    1    2    0    0 +3.4461948974e+02 +1.6759725849e+02 +5.3625420194e+02 6.5910545655e+02 0.0000000000e+00 0.0000e+00 -1.0000e+00
       22  1    1    2    0    0 -1.6820003400e+02 -4.1527698447e+02 -1.0563170706e+03 1.1474109896e+03 0.0000000000e+00 0.0000e+00 -1.0000e+00
</event>
<event>
 6      1 +1.4834189e-01 1.00092700e+04 7.81653100e-03 6.93816600e-02
  1000022 -1    0    0    0    0 +0.0000000000e+00 +0.0000000000e+00 +4.4721471353e+01 1.0000100000e+04 1.0000000000e+04 0.0000e+00 1.0000e+00
  1000022 -1    0    0    0    0 -0.0000000000e+00 -0.0000000000e+00 -4.4721471353e+01 1.0000100000e+04 1.0000000000e+04 0.0000e+00 1.0000e+00
      -24  1    1    2    0    0 +4.8721015347e+02 -5.1395627674e+03 +8.1437107756e+03 9.6425555244e+03 7.9829010000e+01 0.0000e+00 1.0000e+00
       24  1    1    2    0    0 -5.1776295891e+02 +5.2616948533e+03 -8.4769527690e+03 9.9909264900e+03 7.9829010000e+01 0.0000e+00 1.0000e+00
       22  1    1    2    0    0 +5.7598014621e+01 -5.9474965879e+01 +2.1191863229e+02 2.2751771264e+02 0.0000000000e+00 0.0000e+00 -1.0000e+00
       22  1    1    2    0    0 -2.7045209173e+01 -6.2657120043e+01 +1.2132336113e+02 1.3920027294e+02 0.0000000000e+00 0.0000e+00 1.0000e+00
</event>
<event>
 6      1 +1.4834189e-01 1.01108600e+04 7.81653100e-03 6.93207500e-02
  1000022 -1    0    0    0    0 +0.0000000000e+00 +0.0000000000e+00 +4.4721471353e+01 1.0000100000e+04 1.0000000000e+04 0.0000e+00 1.0000e+00
  1000022 -1    0    0    0    0 -0.0000000000e+00 -0.0000000000e+00 -4.4721471353e+01 1.0000100000e+04 1.0000000000e+04 0.0000e+00 1.0000e+00
      -24  1    1    2    0    0 -3.9129909682e+02 +4.8579007041e+02 +6.2272368003e+02 8.8502227553e+02 7.9829010000e+01 0.0000e+00 1.0000e+00
       24  1    1    2    0    0 +7.3119670815e+03 -4.8279514664e+03 -4.5846248299e+03 9.8893445417e+03 7.9829010000e+01 0.0000e+00 1.0000e+00
       22  1    1    2    0    0 -5.2901626101e+02 -6.4655845189e+01 +5.8375127056e+01 5.3614012924e+02 0.0000000000e+00 0.0000e+00 -1.0000e+00
       22  1    1    2    0    0 -6.3916517237e+03 +4.4068172412e+03 +3.9035260228e+03 8.6896930535e+03 0.0000000000e+00 0.0000e+00 1.0000e+00
</event>
<event>
 6      1 +1.4834189e-01 9.80844500e+03 7.81653100e-03 6.95042400e-02
  1000022 -1    0    0    0    0 +0.0000000000e+00 +0.0000000000e+00 +4.4721471353e+01 1.0000100000e+04 1.0000000000e+04 0.0000e+00 -1.0000e+00
  1000022 -1    0    0    0    0 -0.0000000000e+00 -0.0000000000e+00 -4.4721471353e+01 1.0000100000e+04 1.0000000000e+04 0.0000e+00 -1.0000e+00
      -24  1    1    2    0    0 +3.0525175232e+02 -1.5100227524e+02 -3.5261133096e+02 4.9667669664e+02 7.9829010000e+01 0.0000e+00 -1.0000e+00
       24  1    1    2    0    0 -1.0315935635e+02 -3.1895727483e+02 -4.0961972269e+02 5.3529112082e+02 7.9829010000e+01 0.0000e+00 1.0000e+00
       22  1    1    2    0    0 +9.3102360864e+03 -1.6879655874e+02 -6.3145730866e+02 9.3331520182e+03 0.0000000000e+00 0.0000e+00 -1.0000e+00
       22  1    1    2    0    0 -9.5123284823e+03 +6.3875610881e+02 +1.3936883623e+03 9.6350801644e+03 0.0000000000e+00 0.0000e+00 -1.0000e+00
</event>
<event>
 6      1 +1.4834189e-01 1.00402600e+04 7.81653100e-03 6.93630000e-02
  1000022 -1    0    0    0    0 +0.0000000000e+00 +0.0000000000e+00 +4.4721471353e+01 1.0000100000e+04 1.0000000000e+04 0.0000e+00 1.0000e+00
  1000022 -1    0    0    0    0 -0.0000000000e+00 -0.0000000000e+00 -4.4721471353e+01 1.0000100000e+04 1.0000000000e+04 0.0000e+00 1.0000e+00
      -24  1    1    2    0    0 -1.1136433512e+03 -2.8186875749e+03 +9.4268877614e+03 9.9024131754e+03 7.9829010000e+01 0.0000e+00 -1.0000e+00
       24  1    1    2    0    0 +1.2224759108e+03 +2.8819212124e+03 -9.4198734742e+03 9.9267470084e+03 7.9829010000e+01 0.0000e+00 -1.0000e+00
       22  1    1    2    0    0 -1.1337930313e+02 -7.4707952293e+01 +2.3796168514e+01 1.3784920076e+02 0.0000000000e+00 0.0000e+00 -1.0000e+00
       22  1    1    2    0    0 +4.5467434780e+00 +1.1474314736e+01 -3.0810455722e+01 3.3190615491e+01 0.0000000000e+00 0.0000e+00 -1.0000e+00
</event>
<event>
 6      1 +1.4834189e-01 1.17344900e+04 7.81653100e-03 6.84348800e-02
  1000022 -1    0    0    0    0 +0.0000000000e+00 +0.0000000000e+00 +4.4721471353e+01 1.0000100000e+04 1.0000000000e+04 0.0000e+00 1.0000e+00
  1000022 -1    0    0    0    0 -0.0000000000e+00 -0.0000000000e+00 -4.4721471353e+01 1.0000100000e+04 1.0000000000e+04 0.0000e+00 1.0000e+00
      -24  1    1    2    0    0 -1.0953541835e+03 -1.0979362322e+03 +8.1185136048e+03 8.2657062965e+03 7.9829010000e+01 0.0000e+00 1.0000e+00
       24  1    1    2    0    0 -2.1106508144e+03 +2.9574907857e+03 -6.8613199523e+03 7.7643855370e+03 7.9829010000e+01 0.0000e+00 1.0000e+00
       22  1    1    2    0    0 +3.2256999842e+03 -1.8737756039e+03 -1.2184616567e+03 3.9243883868e+03 0.0000000000e+00 0.0000e+00 1.0000e+00
       22  1    1    2    0    0 -1.9694986268e+01 +1.4221050400e+01 -3.8731995832e+01 4.5719779742e+01 0.0000000000e+00 0.0000e+00 -1.0000e+00
</event>
<event>
 6      1 +1.4834189e-01 1.00032100e+04 7.81653100e-03 6.93853200e-02
  1000022 -1    0    0    0    0 +0.0000000000e+00 +0.0000000000e+00 +4.4721471353e+01 1.0000100000e+04 1.0000000000e+04 0.0000e+00 -1.0000e+00
  1000022 -1    0    0    0    0 -0.0000000000e+00 -0.0000000000e+00 -4.4721471353e+01 1.0000100000e+04 1.0000000000e+04 0.0000e+00 -1.0000e+00
      -24  1    1    2    0    0 -1.5768979765e+02 +1.0734638249e+03 +1.6541718827e+02 1.1004209070e+03 7.9829010000e+01 0.0000e+00 1.0000e+00
       24  1    1    2    0    0 +1.9529213013e+03 -9.4818722861e+03 -2.0744428057e+03 9.9009842583e+03 7.9829010000e+01 0.0000e+00 -1.0000e+00
       22  1    1    2    0    0 -1.8166785781e+03 +8.5013442870e+03 +1.9200072695e+03 8.9027862861e+03 0.0000000000e+00 0.0000e+00 -1.0000e+00
       22  1    1    2    0    0 +2.1447074398e+01 -9.2935825741e+01 -1.0981652085e+01 9.6008548520e+01 0.0000000000e+00 0.0000e+00 -1.0000e+00
</event>
<event>
 6      1 +1.4834189e-01 1.00008700e+04 7.81653100e-03 6.93867300e-02
  1000022 -1    0    0    0    0 +0.0000000000e+00 +0.0000000000e+00 +4.4721471353e+01 1.0000100000e+04 1.0000000000e+04 0.0000e+00 1.0000e+00
  1000022 -1    0    0    0    0 -0.0000000000e+00 -0.0000000000e+00 -4.4721471353e+01 1.0000100000e+04 1.0000000000e+04 0.0000e+00 1.0000e+00
      -24  1    1    2    0    0 -9.1579605845e+03 -5.9026523511e+02 -2.5148003657e+03 9.5156318059e+03 7.9829010000e+01 0.0000e+00 -1.0000e+00
       24  1    1    2    0    0 +8.2415440514e+03 +5.2889087335e+02 +2.2567295146e+03 8.5616572391e+03 7.9829010000e+01 0.0000e+00 -1.0000e+00
       22  1    1    2    0    0 +1.3915306431e+03 +1.0851605159e+02 +3.4464926492e+02 1.4376774255e+03 0.0000000000e+00 0.0000e+00 1.0000e+00
       22  1    1    2    0    0 -4.7511410992e+02 -4.7141689842e+01 -8.6578413816e+01 4.8523352945e+02 0.0000000000e+00 0.0000e+00 1.0000e+00
</event>
<event>
 6      1 +1.4834189e-01 1.00011500e+04 7.81653100e-03 6.93865600e-02
  1000022 -1    0    0    0    0 +0.0000000000e+00 +0.0000000000e+00 +4.4721471353e+01 1.0000100000e+04 1.0000000000e+04 0.0000e+00 1.0000e+00
  1000022 -1    0    0    0    0 -0.0000000000e+00 -0.0000000000e+00 -4.4721471353e+01 1.0000100000e+04 1.0000000000e+04 0.0000e+00 1.0000e+00
      -24  1    1    2    0    0 -1.9215085462e+02 -8.7664575745e+03 +4.7277520173e+03 9.9622142200e+03 7.9829010000e+01 0.0000e+00 -1.0000e+00
       24  1    1    2    0    0 +1.6845483497e+02 +8.7385101077e+03 -4.7098724644e+03 9.9287062216e+03 7.9829010000e+01 0.0000e+00 -1.0000e+00
       22  1    1    2    0    0 +1.2615783800e+01 -3.4975913274e+01 +1.1552404490e+01 3.8934952931e+01 0.0000000000e+00 0.0000e+00 1.0000e+00
       22  1    1    2    0    0 +1.1080235855e+01 +6.2923380140e+01 -2.9431957415e+01 7.0344605423e+01 0.0000000000e+00 0.0000e+00 1.0000e+00
</event>
<event>
 6      1 +1.4834189e-01 1.00036700e+04 7.81653100e-03 6.93850400e-02
  1000022 -1    0    0    0    0 +0.0000000000e+00 +0.0000000000e+00 +4.4721471353e+01 1.0000100000e+04 1.0000000000e+04 0.0000e+00 1.0000e+00
  1000022 -1    0    0    0    0 -0.0000000000e+00 -0.0000000000e+00 -4.4721471353e+01 1.0000100000e+04 1.0000000000e+04 0.0000e+00 1.0000e+00
      -24  1    1    2    0    0 -5.5463856750e+03 -2.9079234396e+03 +7.7545463164e+03 9.9678369785e+03 7.9829010000e+01 0.0000e+00 -1.0000e+00
       24  1    1    2    0    0 +5.5464930285e+03 +2.8729912334e+03 -7.7140360430e+03 9.9262474423e+03 7.9829010000e+01 0.0000e+00 -1.0000e+00
       22  1    1    2    0    0 +1.7872858812e+01 +4.4768166454e+01 -6.0588423802e+01 7.7424704769e+01 0.0000000000e+00 0.0000e+00 1.0000e+00
       22  1    1    2    0    0 -1.7980212236e+01 -9.8359602914e+00 +2.0078150495e+01 2.8690874406e+01 0.0000000000e+00 0.0000e+00 1.0000e+00
</event>
<event>
 6      1 +1.4834189e-01 1.00014200e+04 7.81653100e-03 6.93864000e-02
  1000022 -1    0    0    0    0 +0.0000000000e+00 +0.0000000000e+00 +4.4721471353e+01 1.0000100000e+04 1.0000000000e+04 0.0000e+00 -1.0000e+00
  1000022 -1    0    0    0    0 -0.0000000000e+00 -0.0000000000e+00 -4.4721471353e+01 1.0000100000e+04 1.0000000000e+04 0.0000e+00 -1.0000e+00
      -24  1    1    2    0    0 +3.9989868216e+03 -5.1355995449e+03 -7.5761060995e+03 9.9884951112e+03 7.9829010000e+01 0.0000e+00 -1.0000e+00
       24  1    1    2    0    0 -7.8428019968e+02 +9.8618491266e+02 +1.4160876983e+03 1.8971908585e+03 7.9829010000e+01 0.0000e+00 0.0000e+00
       22  1    1    2    0    0 -4.6781022586e+00 -9.7727923492e+00 -7.0436029276e+00 1.2923020283e+01 0.0000000000e+00 0.0000e+00 1.0000e+00
       22  1    1    2    0    0 -3.2100285197e+03 +4.1591874246e+03 +6.1670620042e+03 8.1015910100e+03 0.0000000000e+00 0.0000e+00 -1.0000e+00
</event>
<event>
 6      1 +1.4834189e-01 1.00002800e+04 7.81653100e-03 6.93870900e-02
  1000022 -1    0    0    0    0 +0.0000000000e+00 +0.0000000000e+00 +4.4721471353e+01 1.0000100000e+04 1.0000000000e+04 0.0000e+00 -1.0000e+00
  1000022 -1    0    0    0    0 -0.0000000000e+00 -0.0000000000e+00 -4.4721471353e+01 1.0000100000e+04 1.0000000000e+04 0.0000e+00 -1.0000e+00
      -24  1    1    2    0    0 +7.3071207183e+03 -9.7844099518e+02 -6.7189059553e+03 9.9750403448e+03 7.9829010000e+01 0.0000e+00 1.0000e+00
       24  1    1    2    0    0 -7.0397783729e+03 +9.3176697980e+02 +6.4678910188e+03 9.6055534013e+03 7.9829010000e+01 0.0000e+00 1.0000e+00
       22  1    1    2    0    0 +2.1527733279e+01 -2.1698161309e+00 -1.2986883001e+01 2.5235105156e+01 0.0000000000e+00 0.0000e+00 -1.0000e+00
       22  1    1    2    0    0 -2.8887007870e+02 +4.8843831509e+01 +2.6400181956e+02 3.9437114876e+02 0.0000000000e+00 0.0000e+00 -1.0000e+00
</event>
<event>
 6      1 +1.4834189e-01 1.00147700e+04 7.81653100e-03 6.93783500e-02
  1000022 -1    0    0    0    0 +0.0000000000e+00 +0.0000000000e+00 +4.4721471353e+01 1.0000100000e+04 1.0000000000e+04 0.0000e+00 -1.0000e+00
  1000022 -1    0    0    0    0 -0.0000000000e+00 -0.0000000000e+00 -4.4721471353e+01 1.0000100000e+04 1.0000000000e+04 0.0000e+00 -1.0000e+00
      -24  1    1    2    0    0 -2.9559000286e+03 +9.5121298515e+03 +6.9609363949e+02 9.9854333064e+03 7.9829010000e+01 0.0000e+00 -1.0000e+00
       24  1    1    2    0    0 +2.8845029637e+03 -9.3437790471e+03 -7.0672468707e+02 9.8047129832e+03 7.9829010000e+01 0.0000e+00 -1.0000e+00
       22  1    1    2    0    0 +4.5927550189e+01 -1.7534325685e+02 -8.3499599843e-01 1.8126029573e+02 0.0000000000e+00 0.0000e+00 1.0000e+00
       22  1    1    2    0    0 +2.5469514768e+01 +6.9924524995e+00 +1.1466043572e+01 2.8793414693e+01 0.0000000000e+00 0.0000e+00 -1.0000e+00
</event>
<event>
 6      1 +1.4834189e-01 1.00001700e+04 7.81653100e-03 6.93871500e-02
  1000022 -1    0    0    0    0 +0.0000000000e+00 +0.0000000000e+00 +4.4721471353e+01 1.0000100000e+04 1.0000000000e+04 0.0000e+00 1.0000e+00
  1000022 -1    0    0    0    0 -0.0000000000e+00 -0.0000000000e+00 -4.4721471353e+01 1.0000100000e+04 1.0000000000e+04 0.0000e+00 1.0000e+00
      -24  1    1    2    0    0 -8.0606899385e+03 +5.1230308130e+03 -1.7746243237e+03 9.7147223922e+03 7.9829010000e+01 0.0000e+00 -1.0000e+00
       24  1    1    2    0    0 +7.7293144725e+03 -4.9136119422e+03 +1.7276382224e+03 9.3207827478e+03 7.9829010000e+01 0.0000e+00 -1.0000e+00
       22  1    1    2    0    0 +5.7739569347e+02 -3.4361559938e+02 +1.0053078122e+02 6.7938494607e+02 0.0000000000e+00 0.0000e+00 1.0000e+00
       22  1    1    2    0    0 -2.4602022745e+02 +1.3419672855e+02 -5.3544679946e+01 2.8530991399e+02 0.0000000000e+00 0.0000e+00 1.0000e+00
</event>
<event>
 6      1 +1.4834189e-01 1.00033800e+04 7.81653100e-03 6.93852100e-02
  1000022 -1    0    0    0    0 +0.0000000000e+00 +0.0000000000e+00 +4.4721471353e+01 1.0000100000e+04 1.0000000000e+04 0.0000e+00 1.0000e+00
  1000022 -1    0    0    0    0 -0.0000000000e+00 -0.0000000000e+00 -4.4721471353e+01 1.0000100000e+04 1.0000000000e+04 0.0000e+00 1.0000e+00
      -24  1    1    2    0    0 +4.8414695327e+02 +5.1432300257e+02 +6.3889519469e+02 9.5576470116e+02 7.9829010000e+01 0.0000e+00 1.0000e+00
       24  1    1    2    0    0 -5.6086805844e+03 -5.6254344377e+03 -5.6904689814e+03 9.7719302295e+03 7.9829010000e+01 0.0000e+00 1.0000e+00
       22  1    1    2    0    0 -1.4658487664e+02 -1.4244272462e+02 -9.3796976073e+01 2.2488870264e+02 0.0000000000e+00 0.0000e+00 -1.0000e+00
       22  1    1    2    0    0 +5.2711185078e+03 +5.2535541597e+03 +5.1453707628e+03 9.0476163667e+03 0.0000000000e+00 0.0000e+00 1.0000e+00
</event>
<event>
 6      1 +1.4834189e-01 1.00075300e+04 7.81653100e-03 6.93827100e-02
  1000022 -1    0    0    0    0 +0.0000000000e+00 +0.0000000000e+00 +4.4721471353e+01 1.0000100000e+04 1.0000000000e+04 0.0000e+00 -1.0000e+00
  1000022 -1    0    0    0    0 -0.0000000000e+00 -0.0000000000e+00 -4.4721471353e+01 1.0000100000e+04 1.0000000000e+04 0.0000e+00 -1.0000e+00
      -24  1    1    2    0    0 +1.3201551427e+03 -8.4890837025e+03 +4.4141079817e+03 9.6590927966e+03 7.9829010000e+01 0.0000e+00 -1.0000e+00
       24  1    1    2    0    0 -1.3176823598e+03 +7.6807119321e+03 -3.8063391808e+03 8.6731893336e+03 7.9829010000e+01 0.0000e+00 -1.0000e+00
       22  1    1    2    0    0 +4.3743272143e+01 -3.0674834898e+02 +1.2355551596e+02 3.3357756068e+02 0.0000000000e+00 0.0000e+00 -1.0000e+00
       22  1    1    2    0    0 -4.6216055045e+01 +1.1151201193e+03 -7.3132431681e+02 1.3343403091e+03 0.0000000000e+00 0.0000e+00 -1.0000e+00
</event>
<event>
 6      1 +1.4834189e-01 1.03655100e+04 7.81653100e-03 6.91711700e-02
  1000022 -1    0    0    0    0 +0.0000000000e+00 +0.0000000000e+00 +4.4721471353e+01 1.0000100000e+04 1.0000000000e+04 0.0000e+00 -1.0000e+00
  1000022 -1    0    0    0    0 -0.0000000000e+00 -0.0000000000e+00 -4.4721471353e+01 1.0000100000e+04 1.0000000000e+04 0.0000e+00 -1.0000e+00
      -24  1    1    2    0    0 -6.4867534736e+03 -1.6551266934e+03 -6.3582525129e+03 9.2331556191e+03 7.9829010000e+01 0.0000e+00 1.0000e+00
       24  1    1    2    0    0 +7.3717680994e+03 +1.2171155851e+03 +5.9325432480e+03 9.5407430172e+03 7.9829010000e+01 0.0000e+00 1.0000e+00
       22  1    1    2    0    0 +4.3608024810e+01 -7.6757203908e+01 +3.2143696744e+01 9.3949696220e+01 0.0000000000e+00 0.0000e+00 -1.0000e+00
       22  1    1    2    0    0 -9.2862265063e+02 +5.1476831220e+02 +3.9356556811e+02 1.1323516675e+03 0.0000000000e+00 0.0000e+00 1.0000e+00
</event>
<event>
 6      1 +1.4834189e-01 8.65887200e+03 7.81653100e-03 7.02679600e-02
  1000022 -1    0    0    0    0 +0.0000000000e+00 +0.0000000000e+00 +4.4721471353e+01 1.0000100000e+04 1.0000000000e+04 0.0000e+00 -1.0000e+00
  1000022 -1    0    0    0    0 -0.0000000000e+00 -0.0000000000e+00 -4.4721471353e+01 1.0000100000e+04 1.0000000000e+04 0.0000e+00 -1.0000e+00
      -24  1    1    2    0    0 -7.5900091004e+03 -2.7146306134e+03 +4.8331175482e+03 9.3990880099e+03 7.9829010000e+01 0.0000e+00 1.0000e+00
       24  1    1    2    0    0 +1.1810473095e+03 +2.0907507657e+03 +1.3362936023e+02 2.4063127371e+03 7.9829010000e+01 0.0000e+00 1.0000e+00
       22  1    1    2    0    0 +6.3653058066e+03 +5.3814209792e+02 -4.9770893242e+03 8.0980326666e+03 0.0000000000e+00 0.0000e+00 1.0000e+00
       22  1    1    2    0    0 +4.3655984308e+01 +8.5737749715e+01 +1.0342415732e+01 9.6766586461e+01 0.0000000000e+00 0.0000e+00 1.0000e+00
</event>
<event>
 6      1 +1.4834189e-01 1.01392500e+04 7.81653100e-03 6.93038500e-02
  1000022 -1    0    0    0    0 +0.0000000000e+00 +0.0000000000e+00 +4.4721471353e+01 1.0000100000e+04 1.0000000000e+04 0.0000e+00 1.0000e+00
  1000022 -1    0    0    0    0 -0.0000000000e+00 -0.0000000000e+00 -4.4721471353e+01 1.0000100000e+04 1.0000000000e+04 0.0000e+00 1.0000e+00
      -24  1    1    2    0    0 +2.4739066963e+03 -6.5191284819e+03 -1.7897987259e+03 7.1992362551e+03 7.9829010000e+01 0.0000e+00 -1.0000e+00
       24  1    1    2    0    0 -3.8795015688e+03 +8.4099065465e+03 +3.3845136802e+03 9.8609515801e+03 7.9829010000e+01 0.0000e+00 -1.0000e+00
       22  1    1    2    0    0 +1.3374462590e+03 -1.8977073676e+03 -1.6530629218e+03 2.8500303107e+03 0.0000000000e+00 0.0000e+00 -1.0000e+00
       22  1    1    2    0    0 +6.8148613498e+01 +6.9293031161e+00 +5.8347967452e+01 8.9981854111e+01 0.0000000000e+00 0.0000e+00 -1.0000e+00
</event>
<event>
 6      1 +1.4834189e-01 1.07351300e+04 7.81653100e-03 6.89615800e-02
  1000022 -1    0    0    0    0 +0.0000000000e+00 +0.0000000000e+00 +4.4721471353e+01 1.0000100000e+04 1.0000000000e+04 0.0000e+00 1.0000e+00
  1000022 -1    0    0    0    0 -0.0000000000e+00 -0.0000000000e+00 -4.4721471353e+01 1.0000100000e+04 1.0000000000e+04 0.0000e+00 1.0000e+00
      -24  1    1    2    0    0 -2.2210060403e+03 -1.2615036668e+03 +7.9865487199e+03 8.3854393122e+03 7.9829010000e+01 0.0000e+00 1.0000e+00
       24  1    1    2    0    0 +3.3375297223e+03 +2.8540420342e+03 -6.0688815457e+03 7.4914855981e+03 7.9829010000e+01 0.0000e+00 1.0000e+00
       22  1    1    2    0    0 -8.0063025981e+02 -1.5452064050e+03 -2.7372533735e+03 3.2436441972e+03 0.0000000000e+00 0.0000e+00 1.0000e+00
       22  1    1    2    0    0 -3.1589342221e+02 -4.7331962459e+01 +8.1958619937e+02 8.7963089251e+02 0.0000000000e+00 0.0000e+00 -1.0000e+00
</event>
<event>
 6      1 +1.4834189e-01 1.00003000e+04 7.81653100e-03 6.93870700e-02
  1000022 -1    0    0    0    0 +0.0000000000e+00 +0.0000000000e+00 +4.4721471353e+01 1.0000100000e+04 1.0000000000e+04 0.0000e+00 1.0000e+00
  1000022 -1    0    0    0    0 -0.0000000000e+00 -0.0000000000e+00 -4.4721471353e+01 1.0000100000e+04 1.0000000000e+04 0.0000e+00 1.0000e+00
      -24  1    1    2    0    0 -6.0882868173e+03 +2.1758042572e+03 -7.4876836649e+03 9.8930854576e+03 7.9829010000e+01 0.0000e+00 -1.0000e+00
       24  1    1    2    0    0 +6.1410249329e+03 -2.1985678595e+03 +7.5410602635e+03 9.9709503272e+03 7.9829010000e+01 0.0000e+00 -1.0000e+00
       22  1    1    2    0    0 -7.0263075235e+01 +2.9563177779e+01 -7.5392949758e+01 1.0721463564e+02 0.0000000000e+00 0.0000e+00 -1.0000e+00
       22  1    1    2    0    0 +1.7524959655e+01 -6.7995755112e+00 +2.2016351099e+01 2.8949579510e+01 0.0000000000e+00 0.0000e+00 1.0000e+00
</event>
<event>
 6      1 +1.4834189e-01 1.00370500e+04 7.81653100e-03 6.93649300e-02
  1000022 -1    0    0    0    0 +0.0000000000e+00 +0.0000000000e+00 +4.4721471353e+01 1.0000100000e+04 1.0000000000e+04 0.0000e+00 1.0000e+00
  1000022 -1    0    0    0    0 -0.0000000000e+00 -0.0000000000e+00 -4.4721471353e+01 1.0000100000e+04 1.0000000000e+04 0.0000e+00 1.0000e+00
      -24  1    1    2    0    0 +1.5135138814e+03 -2.4386605882e+03 -3.8564875825e+02 2.8970480440e+03 7.9829010000e+01 0.0000e+00 -1.0000e+00
       24  1    1    2    0    0 -4.2358076262e+03 +8.6596662016e+03 +2.5151821160e+03 9.9631520473e+03 7.9829010000e+01 0.0000e+00 1.0000e+00
       22  1    1    2    0    0 +1.8549685721e+01 -1.6967982119e+00 +1.8591647191e+01 2.6317661556e+01 0.0000000000e+00 0.0000e+00 1.0000e+00
       22  1    1    2    0    0 +2.7037440591e+03 -6.2193088152e+03 -2.1481250050e+03 7.1136822471e+03 0.0000000000e+00 0.0000e+00 1.0000e+00
</event>
<event>
 6      1 +1.4834189e-01 1.00008400e+04 7.81653100e-03 6.93867500e-02
  1000022 -1    0    0    0    0 +0.0000000000e+00 +0.0000000000e+00 +4.4721471353e+01 1.0000100000e+04 1.0000000000e+04 0.0000e+00 1.0000e+00
  1000022 -1    0    0    0    0 -0.0000000000e+00 -0.0000000000e+00 -4.4721471353e+01 1.0000100000e+04 1.0000000000e+04 0.0000e+00 1.0000e+00
      -24  1    1    2    0    0 +9.7452290145e+03 -7.5961890261e+02 +1.3785698517e+03 9.8718456698e+03 7.9829010000e+01 0.0000e+00 1.0000e+00
       24  1    1    2    0    0 -9.8710308719e+03 +7.7283701511e+02 -1.3951251089e+03 9.9993636931e+03 7.9829010000e+01 0.0000e+00 1.0000e+00
       22  1    1    2    0    0 +1.6331145640e+01 +3.8244809318e+00 -1.0743274652e+00 1.6807354099e+01 0.0000000000e+00 0.0000e+00 1.0000e+00
       22  1    1    2    0    0 +1.0947071179e+02 -1.7042593435e+01 +1.7629584685e+01 1.1218328301e+02 0.0000000000e+00 0.0000e+00 1.0000e+00
</event>
<event>
 6      1 +1.4834189e-01 1.00492200e+04 7.81653100e-03 6.93576200e-02
  1000022 -1    0    0    0    0 +0.0000000000e+00 +0.0000000000e+00 +4.4721471353e+01 1.0000100000e+04 1.0000000000e+04 0.0000e+00 -1.0000e+00
  1000022 -1    0    0    0    0 -0.0000000000e+00 -0.0000000000e+00 -4.4721471353e+01 1.0000100000e+04 1.0000000000e+04 0.0000e+00 -1.0000e+00
      -24  1    1    2    0    0 -1.9656076787e+03 -7.4708988431e+03 -6.2437134722e+03 9.9331905078e+03 7.9829010000e+01 0.0000e+00 1.0000e+00
       24  1    1    2    0    0 +1.7760140069e+03 +5.6272632714e+03 +4.0369833567e+03 7.1500996477e+03 7.9829010000e+01 0.0000e+00 1.0000e+00
       22  1    1    2    0    0 -3.7592344326e+00 -1.3213339901e+01 -1.1297098897e+01 1.7786192351e+01 0.0000000000e+00 0.0000e+00 1.0000e+00
       22  1    1    2    0    0 +1.9335290624e+02 +1.8568489116e+03 +2.2180272144e+03 2.8991236522e+03 0.0000000000e+00 0.0000e+00 -1.0000e+00
</event>
<event>
 6      1 +1.4834189e-01 1.00056100e+04 7.81653100e-03 6.93838700e-02
  1000022 -1    0    0    0    0 +0.0000000000e+00 +0.0000000000e+00 +4.4721471353e+01 1.0000100000e+04 1.0000000000e+04 0.0000e+00 -1.0000e+00
  1000022 -1    0    0    0    0 -0.0000000000e+00 -0.0000000000e+00 -4.4721471353e+01 1.0000100000e+04 1.0000000000e+04 0.0000e+00 -1.0000e+00
      -24  1    1    2    0    0 +1.9301377285e+03 +2.7574341999e+03 -4.8310762917e+03 5.8885096438e+03 7.9829010000e+01 0.0000e+00 -1.0000e+00
       24  1    1    2    0    0 -2.5180121544e+03 -3.4040766255e+03 +5.7727167987e+03 7.1595219666e+03 7.9829010000e+01 0.0000e+00 -1.0000e+00
       22  1    1    2    0    0 -7.9325199170e+02 -1.1991061842e+03 +2.4562401913e+03 2.8460885862e+03 0.0000000000e+00 0.0000e+00 1.0000e+00
       22  1    1    2    0    0 +1.3811264175e+03 +1.8457486098e+03 -3.3978806982e+03 4.1060798033e+03 0.0000000000e+00 0.0000e+00 -1.0000e+00
</event>
<event>
 6      1 +1.4834189e-01 1.01252600e+04 7.81653100e-03 6.93121700e-02
  1000022 -1    0    0    0    0 +0.0000000000e+00 +0.0000000000e+00 +4.4721471353e+01 1.0000100000e+04 1.0000000000e+04 0.0000e+00 1.0000e+00
  1000022 -1    0    0    0    0 -0.0000000000e+00 -0.0000000000e+00 -4.4721471353e+01 1.0000100000e+04 1.0000000000e+04 0.0000e+00 1.0000e+00
      -24  1    1    2    0    0 +2.1678930440e+03 +4.2543721843e+03 +1.5991700673e+03 5.0361851146e+03 7.9829010000e+01 0.0000e+00 -1.0000e+00
       24  1    1    2    0    0 -4.9443271500e+03 -8.2231070679e+03 -2.3328737302e+03 9.8749447253e+03 7.9829010000e+01 0.0000e+00 -1.0000e+00
       22  1    1    2    0    0 +1.4413614538e+03 +2.5603723510e+03 +1.0553813955e+03 3.1219960452e+03 0.0000000000e+00 0.0000e+00 -1.0000e+00
       22  1    1    2    0    0 +1.3350726523e+03 +1.4083625326e+03 -3.2167773261e+02 1.9670741150e+03 0.0000000000e+00 0.0000e+00 -1.0000e+00
</event>
<event>
 6      1 +1.4834189e-01 1.00010500e+04 7.81653100e-03 6.93866200e-02
  1000022 -1    0    0    0    0 +0.0000000000e+00 +0.0000000000e+00 +4.4721471353e+01 1.0000100000e+04 1.0000000000e+04 0.0000e+00 1.0000e+00
  1000022 -1    0    0    0    0 -0.0000000000e+00 -0.0000000000e+00 -4.4721471353e+01 1.0000100000e+04 1.0000000000e+04 0.0000e+00 1.0000e+00
      -24  1    1    2    0    0 +5.0189085791e+02 +7.4795722564e+03 -2.3033361246e+03 7.8426797426e+03 7.9829010000e+01 0.0000e+00 -1.0000e+00
       24  1    1    2    0    0 -7.0539617028e+02 -9.2882500533e+03 +2.7494868556e+03 9.7126321587e+03 7.9829010000e+01 0.0000e+00 -1.0000e+00
       22  1    1    2    0    0 -7.1476239952e+00 -2.6979825855e+02 +9.6179942374e+01 2.8651835920e+02 0.0000000000e+00 0.0000e+00 -1.0000e+00
       22  1    1    2    0    0 +2.1065293637e+02 +2.0784760555e+03 -5.4233067341e+02 2.1583697395e+03 0.0000000000e+00 0.0000e+00 1.0000e+00
</event>
<event>
 6      1 +1.4834189e-01 1.02007700e+04 7.81653100e-03 6.92674300e-02
  1000022 -1    0    0    0    0 +0.0000000000e+00 +0.0000000000e+00 +4.4721471353e+01 1.0000100000e+04 1.0000000000e+04 0.0000e+00 -1.0000e+00
  1000022 -1    0    0    0    0 -0.0000000000e+00 -0.0000000000e+00 -4.4721471353e+01 1.0000100000e+04 1.0000000000e+04 0.0000e+00 -1.0000e+00
      -24  1    1    2    0    0 +5.6121611267e+03 +2.4161788082e+03 -5.9555269119e+03 8.5328158315e+03 7.9829010000e+01 0.0000e+00 1.0000e+00
       24  1    1    2    0    0 -7.1627564311e+03 -2.5375358101e+03 +6.1869383244e+03 9.7994258086e+03 7.9829010000e+01 0.0000e+00 1.0000e+00
       22  1    1    2    0    0 +1.0944543451e+03 -1.3980749825e+02 -2.6067844212e+01 1.1036557355e+03 0.0000000000e+00 0.0000e+00 -1.0000e+00
       22  1    1    2    0    0 +4.5614095925e+02 +2.6116450019e+02 -2.0534356825e+02 5.6430262438e+02 0.0000000000e+00 0.0000e+00 -1.0000e+00
</event>
<event>
 6      1 +1.4834189e-01 9.85835400e+03 7.81653100e-03 6.94735000e-02
  1000022 -1    0    0    0    0 +0.0000000000e+00 +0.0000000000e+00 +4.4721471353e+01 1.0000100000e+04 1.0000000000e+04 0.0000e+00 1.0000e+00
  1000022 -1    0    0    0    0 -0.0000000000e+00 -0.0000000000e+00 -4.4721471353e+01 1.0000100000e+04 1.0000000000e+04 0.0000e+00 1.0000e+00
      -24  1    1    2    0    0 +6.8308951876e+03 +6.7378346781e+03 +1.6710176360e+03 9.7395183569e+03 7.9829010000e+01 0.0000e+00 -1.0000e+00
       24  1    1    2    0    0 -4.1908729637e+01 -1.6730001812e+02 +2.3430271221e+02 3.0168869629e+02 7.9829010000e+01 0.0000e+00 -1.0000e+00
       22  1    1    2    0    0 -6.8371539161e+03 -6.7275998819e+03 -1.9510630270e+03 9.7884585497e+03 0.0000000000e+00 0.0000e+00 -1.0000e+00
       22  1    1    2    0    0 +4.8167458212e+01 +1.5706522185e+02 +4.5742678857e+01 1.7053439716e+02 0.0000000000e+00 0.0000e+00 -1.0000e+00
</event>
<event>
 6      1 +1.4834189e-01 1.00009000e+04 7.81653100e-03 6.93867100e-02
  1000022 -1    0    0    0    0 +0.0000000000e+00 +0.0000000000e+00 +4.4721471353e+01 1.0000100000e+04 1.0000000000e+04 0.0000e+00 1.0000e+00
  1000022 -1    0    0    0    0 -0.0000000000e+00 -0.0000000000e+00 -4.4721471353e+01 1.0000100000e+04 1.0000000000e+04 0.0000e+00 1.0000e+00
      -24  1    1    2    0    0 -9.3188623090e+02 -7.1810756767e+03 -4.8338804428e+03 8.7068382681e+03 7.9829010000e+01 0.0000e+00 1.0000e+00
       24  1    1    2    0    0 +1.1383032053e+03 +8.2295695864e+03 +5.5395969641e+03 9.9857426845e+03 7.9829010000e+01 0.0000e+00 1.0000e+00
       22  1    1    2    0    0 +5.7028245700e-01 +1.1611132792e+01 +6.9752760365e+00 1.3557215886e+01 0.0000000000e+00 0.0000e+00 1.0000e+00
       22  1    1    2    0    0 -2.0698725681e+02 -1.0601050426e+03 -7.1269179733e+02 1.2940618315e+03 0.0000000000e+00 0.0000e+00 -1.0000e+00
</event>
<event>
 6      1 +1.4834189e-01 1.00024500e+04 7.81653100e-03 6.93857800e-02
  1000022 -1    0    0    0    0 +0.0000000000e+00 +0.0000000000e+00 +4.4721471353e+01 1.0000100000e+04 1.0000000000e+04 0.0000e+00 1.0000e+00
  1000022 -1    0    0    0    0 -0.0000000000e+00 -0.0000000000e+00 -4.4721471353e+01 1.0000100000e+04 1.0000000000e+04 0.0000e+00 1.0000e+00
      -24  1    1    2    0    0 +1.7534804067e+03 +8.2433459267e+03 -5.3778414773e+03 9.9977496082e+03 7.9829010000e+01 0.0000e+00 1.0000e+00
       24  1    1    2    0    0 -1.7525762228e+03 -8.2059816734e+03 +5.3659007279e+03 9.9603675602e+03 7.9829010000e+01 0.0000e+00 1.0000e+00
       22  1    1    2    0    0 -8.0370744374e+00 -2.0838844976e+01 +5.9672559906e+00 2.3118394614e+01 0.0000000000e+00 0.0000e+00 1.0000e+00
       22  1    1    2    0    0 +7.1328905211e+00 -1.6525408297e+01 +5.9734933739e+00 1.8964436972e+01 0.0000000000e+00 0.0000e+00 1.0000e+00
</event>
<event>
 6      1 +1.4834189e-01 1.00405100e+04 7.81653100e-03 6.93628500e-02
  1000022 -1    0    0    0    0 +0.0000000000e+00 +0.0000000000e+00 +4.4721471353e+01 1.0000100000e+04 1.0000000000e+04 0.0000e+00 1.0000e+00
  1000022 -1    0    0    0    0 -0.0000000000e+00 -0.0000000000e+00 -4.4721471353e+01 1.0000100000e+04 1.0000000000e+04 0.0000e+00 1.0000e+00
      -24  1    1    2    0    0 +1.1599312920e+03 +1.1514396191e+03 +4.2412432239e+03 4.5459620053e+03 7.9829010000e+01 0.0000e+00 -1.0000e+00
       24  1    1    2    0    0 -3.3546222244e+03 -3.4279105512e+03 -8.7284031682e+03 9.9596915390e+03 7.9829010000e+01 0.0000e+00 -1.0000e+00
       22  1    1    2    0    0 +5.9162951157e+01 +5.6601223613e+01 +1.9476137685e+02 2.1127221118e+02 0.0000000000e+00 0.0000e+00 1.0000e+00
       22  1    1    2    0    0 +2.1355279812e+03 +2.2198697084e+03 +4.2923985674e+03 5.2832742445e+03 0.0000000000e+00 0.0000e+00 -1.0000e+00
</event>
<event>
 6      1 +1.4834189e-01 1.00266400e+04 7.81653100e-03 6.93711900e-02
  1000022 -1    0    0    0    0 +0.0000000000e+00 +0.0000000000e+00 +4.4721471353e+01 1.0000100000e+04 1.0000000000e+04 0.0000e+00 1.0000e+00
  1000022 -1    0    0    0    0 -0.0000000000e+00 -0.0000000000e+00 -4.4721471353e+01 1.0000100000e+04 1.0000000000e+04 0.0000e+00 1.0000e+00
      -24  1    1    2    0    0 +8.5695190260e+03 +3.7415227688e+03 -2.8233127484e+03 9.7679637854e+03 7.9829010000e+01 0.0000e+00 -1.0000e+00
       24  1    1    2    0    0 -8.6914961007e+03 -3.7838840385e+03 +3.0259965226e+03 9.9510256010e+03 7.9829010000e+01 0.0000e+00 -1.0000e+00
       22  1    1    2    0    0 -1.9461405096e+01 -8.1133473439e+00 +7.9409581957e+00 2.2530679318e+01 0.0000000000e+00 0.0000e+00 1.0000e+00
       22  1    1    2    0    0 +1.4143847976e+02 +5.0474617104e+01 -2.1062473236e+02 2.5867993430e+02 0.0000000000e+00 0.0000e+00 -1.0000e+00
</event>
<event>
 6      1 +1.4834189e-01 1.13548300e+04 7.81653100e-03 6.86285400e-02
  1000022 -1    0    0    0    0 +0.0000000000e+00 +0.0000000000e+00 +4.4721471353e+01 1.0000100000e+04 1.0000000000e+04 0.0000e+00 1.0000e+00
  1000022 -1    0    0    0    0 -0.0000000000e+00 -0.0000000000e+00 -4.4721471353e+01 1.0000100000e+04 1.0000000000e+04 0.0000e+00 1.0000e+00
      -24  1    1    2    0    0 -5.4079854585e+02 -5.7196410153e+03 +9.0418698053e+02 5.8164149764e+03 7.9829010000e+01 0.0000e+00 -1.0000e+00
       24  1    1    2    0    0 -2.7659115656e+03 +6.6232943680e+03 -1.4455135331e+03 7.3221702465e+03 7.9829010000e+01 0.0000e+00 -1.0000e+00
       22  1    1    2    0    0 -2.7678009194e+02 -2.7525549953e+03 +5.9145183127e+02 2.8289541337e+03 0.0000000000e+00 0.0000e+00 -1.0000e+00
       22  1    1    2    0    0 +3.5834902034e+03 +1.8489016426e+03 -5.0125278694e+01 4.0326606434e+03 0.0000000000e+00 0.0000e+00 -1.0000e+00
</event>
<event>
 6      1 +1.4834189e-01 1.00989300e+04 7.81653100e-03 6.93278600e-02
  1000022 -1    0    0    0    0 +0.0000000000e+00 +0.0000000000e+00 +4.4721471353e+01 1.0000100000e+04 1.0000000000e+04 0.0000e+00 -1.0000e+00
  1000022 -1    0    0    0    0 -0.0000000000e+00 -0.0000000000e+00 -4.4721471353e+01 1.0000100000e+04 1.0000000000e+04 0.0000e+00 -1.0000e+00
      -24  1    1    2    0    0 -9.8327389182e+02 -8.1475296282e+03 +4.7152450097e+03 9.4651452583e+03 7.9829010000e+01 0.0000e+00 1.0000e+00
       24  1    1    2    0    0 +6.2471774844e+02 +8.4058786325e+03 -5.1469596406e+03 9.8765699543e+03 7.9829010000e+01 0.0000e+00 1.0000e+00
       22  1    1    2    0    0 +3.5227884057e+02 -2.6821818780e+02 +4.5347318552e+02 6.3378175089e+02 0.0000000000e+00 0.0000e+00 -1.0000e+00
       22  1    1    2    0    0 +6.2773028146e+00 +9.8691834915e+00 -2.1758554605e+01 2.4703036491e+01 0.0000000000e+00 0.0000e+00 -1.0000e+00
</event>
<event>
 6      1 +1.4834189e-01 6.91038400e+03 7.81653100e-03 7.16939800e-02
  1000022 -1    0    0    0    0 +0.0000000000e+00 +0.0000000000e+00 +4.4721471353e+01 1.0000100000e+04 1.0000000000e+04 0.0000e+00 1.0000e+00
  1000022 -1    0    0    0    0 -0.0000000000e+00 -0.0000000000e+00 -4.4721471353e+01 1.0000100000e+04 1.0000000000e+04 0.0000e+00 1.0000e+00
      -24  1    1    2    0    0 +1.9180678583e+02 +1.5094056898e+03 -4.9212854300e+03 5.1517490558e+03 7.9829010000e+01 0.0000e+00 -1.0000e+00
       24  1    1    2    0    0 +6.6292171144e+03 +3.6788835082e+02 +3.6190783577e+03 7.5621400555e+03 7.9829010000e+01 0.0000e+00 -1.0000e+00
       22  1    1    2    0    0 +2.4029187766e+00 +1.2992267928e+01 -7.2481421330e+01 7.3675840563e+01 0.0000000000e+00 0.0000e+00 -1.0000e+00
       22  1    1    2    0    0 -6.8234268190e+03 -1.8902863085e+03 +1.3746884936e+03 7.2126350481e+03 0.0000000000e+00 0.0000e+00 -1.0000e+00
</event>
<event>
 6      1 +1.4834189e-01 1.00558500e+04 7.81653100e-03 6.93536400e-02
  1000022 -1    0    0    0    0 +0.0000000000e+00 +0.0000000000e+00 +4.4721471353e+01 1.0000100000e+04 1.0000000000e+04 0.0000e+00 1.0000e+00
  1000022 -1    0    0    0    0 -0.0000000000e+00 -0.0000000000e+00 -4.4721471353e+01 1.0000100000e+04 1.0000000000e+04 0.0000e+00 1.0000e+00
      -24  1    1    2    0    0 -3.5365583746e+02 +1.8925281517e+03 -5.0175371728e+03 5.3748290399e+03 7.9829010000e+01 0.0000e+00 -1.0000e+00
       24  1    1    2    0    0 -5.4492510011e+02 -4.0652904700e+03 +9.0587055816e+03 9.9443476134e+03 7.9829010000e+01 0.0000e+00 -1.0000e+00
       22  1    1    2    0    0 +9.1029020560e+02 +2.1432289739e+03 -3.9601873499e+03 4.5940333629e+03 0.0000000000e+00 0.0000e+00 -1.0000e+00
       22  1    1    2    0    0 -1.1709268034e+01 +2.9533344417e+01 -8.0981058949e+01 8.6989983900e+01 0.0000000000e+00 0.0000e+00 1.0000e+00
</event>
<event>
 6      1 +1.4834189e-01 1.01683500e+04 7.81653100e-03 6.92866000e-02
  1000022 -1    0    0    0    0 +0.0000000000e+00 +0.0000000000e+00 +4.4721471353e+01 1.0000100000e+04 1.0000000000e+04 0.0000e+00 -1.0000e+00
  1000022 -1    0    0    0    0 -0.0000000000e+00 -0.0000000000e+00 -4.4721471353e+01 1.0000100000e+04 1.0000000000e+04 0.0000e+00 -1.0000e+00
      -24  1    1    2    0    0 +5.2156110941e+03 -7.8327410649e+03 +4.8275113567e+02 9.4230490291e+03 7.9829010000e+01 0.0000e+00 -1.0000e+00
       24  1    1    2    0    0 -3.9670188791e+03 +3.3766113627e+03 -1.2800129481e+01 5.2101132037e+03 7.9829010000e+01 0.0000e+00 1.0000e+00
       22  1    1    2    0    0 -1.5265980790e+03 +4.7073992030e+03 -3.0656006829e+02 4.9582343658e+03 0.0000000000e+00 0.0000e+00 -1.0000e+00
       22  1    1    2    0    0 +2.7800586396e+02 -2.5126950077e+02 -1.6339093790e+02 4.0880340140e+02 0.0000000000e+00 0.0000e+00 -1.0000e+00
</event>
<event>
 6      1 +1.4834189e-01 1.00150900e+04 7.81653100e-03 6.93781500e-02
  1000022 -1    0    0    0    0 +0.0000000000e+00 +0.0000000000e+00 +4.4721471353e+01 1.0000100000e+04 1.0000000000e+04 0.0000e+00 1.0000e+00
  1000022 -1    0    0    0    0 -0.0000000000e+00 -0.0000000000e+00 -4.4721471353e+01 1.0000100000e+04 1.0000000000e+04 0.0000e+00 1.0000e+00
      -24  1    1    2    0    0 -3.2708274701e+03 -8.3686655958e+03 -4.3546621464e+03 9.9851054714e+03 7.9829010000e+01 0.0000e+00 1.0000e+00
       24  1    1    2    0    0 +2.3721620684e+03 +5.1260939094e+03 +2.7470427601e+03 6.2814495336e+03 7.9829010000e+01 0.0000e+00 1.0000e+00
       22  1    1    2    0    0 +9.0039285052e+02 +3.2167461886e+03 +1.5781338704e+03 3.6944106215e+03 0.0000000000e+00 0.0000e+00 -1.0000e+00
       22  1    1    2    0    0 -1.7274488596e+00 +2.5825497814e+01 +2.9485515985e+01 3.9234373575e+01 0.0000000000e+00 0.0000e+00 -1.0000e+00
</event>
<event>
 6      1 +1.4834189e-01 1.00023000e+04 7.81653100e-03 6.93858700e-02
  1000022 -1    0    0    0    0 +0.0000000000e+00 +0.0000000000e+00 +4.4721471353e+01 1.0000100000e+04 1.0000000000e+04 0.0000e+00 1.0000e+00
  1000022 -1    0    0    0    0 -0.0000000000e+00 -0.0000000000e+00 -4.4721471353e+01 1.0000100000e+04 1.0000000000e+04 0.0000e+00 1.0000e+00
      -24  1    1    2    0    0 -1.2994373950e+03 -1.5764961802e+03 +9.6220047981e+03 9.8368301172e+03 7.9829010000e+01 0.0000e+00 1.0000e+00
       24  1    1    2    0    0 +3.5085379669e+02 +2.7085155699e+02 -2.0678030081e+03 2.1162799682e+03 7.9829010000e+01 0.0000e+00 0.0000e+00
       22  1    1    2    0    0 +1.0174414836e+03 +1.3482128894e+03 -7.6985136423e+03 7.8816227687e+03 0.0000000000e+00 0.0000e+00 1.0000e+00
       22  1    1    2    0    0 -6.8857885277e+01 -4.2568266222e+01 +1.4431185227e+02 1.6546714586e+02 0.0000000000e+00 0.0000e+00 -1.0000e+00
</event>
<event>
 6      1 +1.4834189e-01 1.00024800e+04 7.81653100e-03 6.93857600e-02
  1000022 -1    0    0    0    0 +0.0000000000e+00 +0.0000000000e+00 +4.4721471353e+01 1.0000100000e+04 1.0000000000e+04 0.0000e+00 1.0000e+00
  1000022 -1    0    0    0    0 -0.0000000000e+00 -0.0000000000e+00 -4.4721471353e+01 1.0000100000e+04 1.0000000000e+04 0.0000e+00 1.0000e+00
      -24  1    1    2    0    0 +8.3541302417e+03 -5.4728343311e+03 +4.5230073608e+02 9.9977175564e+03 7.9829010000e+01 0.0000e+00 -1.0000e+00
       24  1    1    2    0    0 -7.8650742734e+03 +5.1485030334e+03 -4.0269133036e+02 9.4093044265e+03 7.9829010000e+01 0.0000e+00 -1.0000e+00
       22  1    1    2    0    0 -2.7468211297e+01 +1.3770905800e+01 -1.8728056751e+01 3.5984449253e+01 0.0000000000e+00 0.0000e+00 -1.0000e+00
       22  1    1    2    0    0 -4.6158775695e+02 +3.1056039188e+02 -3.0881348967e+01 5.5719356788e+02 0.0000000000e+00 0.0000e+00 -1.0000e+00
</event>
<event>
 6      1 +1.4834189e-01 1.00375400e+04 7.81653100e-03 6.93646400e-02
  1000022 -1    0    0    0    0 +0.0000000000e+00 +0.0000000000e+00 +4.4721471353e+01 1.0000100000e+04 1.0000000000e+04 0.0000e+00 1.0000e+00
  1000022 -1    0    0    0    0 -0.0000000000e+00 -0.0000000000e+00 -4.4721471353e+01 1.0000100000e+04 1.0000000000e+04 0.0000e+00 1.0000e+00
      -24  1    1    2    0    0 -4.0262455385e+03 -9.6574239393e+02 -7.4724547347e+03 8.5432583913e+03 7.9829010000e+01 0.0000e+00 -1.0000e+00
       24  1    1    2    0    0 +4.5981801815e+03 +8.9417592376e+02 +8.2601307060e+03 9.4962594486e+03 7.9829010000e+01 0.0000e+00 -1.0000e+00
       22  1    1    2    0    0 -6.4536454866e+02 -2.0421718200e+02 -1.2476021823e+03 1.4194052499e+03 0.0000000000e+00 0.0000e+00 -1.0000e+00
       22  1    1    2    0    0 +7.3429905629e+01 +2.7578365217e+02 +4.5992621105e+02 5.4127691015e+02 0.0000000000e+00 0.0000e+00 1.0000e+00
</event>
<event>
 6      1 +1.4834189e-01 1.00762700e+04 7.81653100e-03 6.93414000e-02
  1000022 -1    0    0    0    0 +0.0000000000e+00 +0.0000000000e+00 +4.4721471353e+01 1.0000100000e+04 1.0000000000e+04 0.0000e+00 1.0000e+00
  1000022 -1    0    0    0    0 -0.0000000000e+00 -0.0000000000e+00 -4.4721471353e+01 1.0000100000e+04 1.0000000000e+04 0.0000e+00 1.0000e+00
      -24  1    1    2    0    0 -2.9993443235e+03 +8.9837949948e+03 -2.9192073238e+03 9.9112452775e+03 7.9829010000e+01 0.0000e+00 -1.0000e+00
       24  1    1    2    0    0 +2.8208106808e+03 -8.8819040790e+03 +3.0782973159e+03 9.8146563873e+03 7.9829010000e+01 0.0000e+00 -1.0000e+00
       22  1    1    2    0    0 +1.8103423957e+02 -1.1210168850e+02 -1.5200007269e+02 2.6161843696e+02 0.0000000000e+00 0.0000e+00 1.0000e+00
       22  1    1    2    0    0 -2.5005969003e+00 +1.0210772650e+01 -7.0899193376e+00 1.2679898232e+01 0.0000000000e+00 0.0000e+00 1.0000e+00
</event>
<event>
 6      1 +1.4834189e-01 1.00095300e+04 7.81653100e-03 6.93815000e-02
  1000022 -1    0    0    0    0 +0.0000000000e+00 +0.0000000000e+00 +4.4721471353e+01 1.0000100000e+04 1.0000000000e+04 0.0000e+00 -1.0000e+00
  1000022 -1    0    0    0    0 -0.0000000000e+00 -0.0000000000e+00 -4.4721471353e+01 1.0000100000e+04 1.0000000000e+04 0.0000e+00 -1.0000e+00
      -24  1    1    2    0    0 +2.3726812351e+02 -9.4922932936e+03 -2.0861515077e+03 9.7220537397e+03 7.9829010000e+01 0.0000e+00 1.0000e+00
       24  1    1    2    0    0 -2.5804782302e+02 +9.7513369894e+03 +2.1568499125e+03 9.9906724486e+03 7.9829010000e+01 0.0000e+00 1.0000e+00
       22  1    1    2    0    0 +1.3777499492e+01 +6.4688038523e-01 -1.7527056654e+01 2.2303265713e+01 0.0000000000e+00 0.0000e+00 -1.0000e+00
       22  1    1    2    0    0 +7.0022000230e+00 -2.5969057624e+02 -5.3171348161e+01 2.6517054599e+02 0.0000000000e+00 0.0000e+00 -1.0000e+00
</event>
<event>
 6      1 +1.4834189e-01 7.44463800e+03 7.81653100e-03 7.12167300e-02
  1000022 -1    0    0    0    0 +0.0000000000e+00 +0.0000000000e+00 +4.4721471353e+01 1.0000100000e+04 1.0000000000e+04 0.0000e+00 1.0000e+00
  1000022 -1    0    0    0    0 -0.0000000000e+00 -0.0000000000e+00 -4.4721471353e+01 1.0000100000e+04 1.0000000000e+04 0.0000e+00 1.0000e+00
      -24  1    1    2    0    0 +4.0896108588e+03 +1.5190373429e+03 +9.1622935565e+02 4.4585020274e+03 7.9829010000e+01 0.0000e+00 -1.0000e+00
       24  1    1    2    0    0 -3.7886854579e+01 -7.3137921720e+03 -3.3019392840e+03 8.0250960776e+03 7.9829010000e+01 0.0000e+00 -1.0000e+00
       22  1    1    2    0    0 -4.0542502713e+03 +5.8202570563e+03 +2.3988815362e+03 7.4877880638e+03 0.0000000000e+00 0.0000e+00 -1.0000e+00
       22  1    1    2    0    0 +2.5262670212e+00 -2.5502227170e+01 -1.3171607789e+01 2.8813831183e+01 0.0000000000e+00 0.0000e+00 -1.0000e+00
</event>
<event>
 6      1 +1.4834189e-01 1.00006000e+04 7.81653100e-03 6.93868900e-02
  1000022 -1    0    0    0    0 +0.0000000000e+00 +0.0000000000e+00 +4.4721471353e+01 1.0000100000e+04 1.0000000000e+04 0.0000e+00 -1.0000e+00
  1000022 -1    0    0    0    0 -0.0000000000e+00 -0.0000000000e+00 -4.4721471353e+01 1.0000100000e+04 1.0000000000e+04 0.0000e+00 -1.0000e+00
      -24  1    1    2    0    0 +7.7354721678e+03 +3.5499960744e+03 -4.1091428647e+03 9.4515305396e+03 7.9829010000e+01 0.0000e+00 -1.0000e+00
       24  1    1    2    0    0 -8.1333588609e+03 -3.6594913837e+03 +4.4358941143e+03 9.9612716463e+03 7.9829010000e+01 0.0000e+00 -1.0000e+00
       22  1    1    2    0    0 +3.9871110951e+02 +1.4262010717e+02 -3.4794341906e+02 5.4806538541e+02 0.0000000000e+00 0.0000e+00 1.0000e+00
       22  1    1    2    0    0 -8.2441641978e-01 -3.3124797971e+01 +2.1192169398e+01 3.9332428692e+01 0.0000000000e+00 0.0000e+00 -1.0000e+00
</event>
<event>
 6      1 +1.4834189e-01 1.00969900e+04 7.81653100e-03 6.93290200e-02
  1000022 -1    0    0    0    0 +0.0000000000e+00 +0.0000000000e+00 +4.4721471353e+01 1.0000100000e+04 1.0000000000e+04 0.0000e+00 -1.0000e+00
  1000022 -1    0    0    0    0 -0.0000000000e+00 -0.0000000000e+00 -4.4721471353e+01 1.0000100000e+04 1.0000000000e+04 0.0000e+00 -1.0000e+00
      -24  1    1    2    0    0 -7.0106013539e+03 +6.8801540415e+03 +2.7119868311e+02 9.8267478026e+03 7.9829010000e+01 0.0000e+00 -1.0000e+00
       24  1    1    2    0    0 +6.9154524716e+03 -7.0597232069e+03 -2.1522461925e+02 9.8851337347e+03 7.9829010000e+01 0.0000e+00 -1.0000e+00
       22  1    1    2    0    0 -6.0116436233e+01 +4.7236112315e+01 +1.1525702821e+00 7.6462831691e+01 0.0000000000e+00 0.0000e+00 1.0000e+00
       22  1    1    2    0    0 +1.5526531852e+02 +1.3233305304e+02 -5.7126634142e+01 2.1185563101e+02 0.0000000000e+00 0.0000e+00 -1.0000e+00
</event>
<event>
 6      1 +1.4834189e-01 1.00261900e+04 7.81653100e-03 6.93714600e-02
  1000022 -1    0    0    0    0 +0.0000000000e+00 +0.0000000000e+00 +4.4721471353e+01 1.0000100000e+04 1.0000000000e+04 0.0000e+00 -1.0000e+00
  1000022 -1    0    0    0    0 -0.0000000000e+00 -0.0000000000e+00 -4.4721471353e+01 1.0000100000e+04 1.0000000000e+04 0.0000e+00 -1.0000e+00
      -24  1    1    2    0    0 -7.2471345583e+03 +4.8100470353e+03 -4.8469509397e+03 9.9577516474e+03 7.9829010000e+01 0.0000e+00 -1.0000e+00
       24  1    1    2    0    0 +1.7194205257e+02 -3.4130719586e+02 +1.9781579550e+02 4.3767388679e+02 7.9829010000e+01 0.0000e+00 -1.0000e+00
       22  1    1    2    0    0 -8.5783842747e+00 +1.1073107904e+01 -8.2453574193e+00 1.6253870751e+01 0.0000000000e+00 0.0000e+00 -1.0000e+00
       22  1    1    2    0    0 +7.0837708900e+03 -4.4798129473e+03 +4.6573805016e+03 9.5885205951e+03 0.0000000000e+00 0.0000e+00 -1.0000e+00
</event>
<event>
 6      1 +1.4834189e-01 1.00078300e+04 7.81653100e-03 6.93825300e-02
  1000022 -1    0    0    0    0 +0.0000000000e+00 +0.0000000000e+00 +4.4721471353e+01 1.0000100000e+04 1.0000000000e+04 0.0000e+00 -1.0000e+00
  1000022 -1    0    0    0    0 -0.0000000000e+00 -0.0000000000e+00 -4.4721471353e+01 1.0000100000e+04 1.0000000000e+04 0.0000e+00 -1.0000e+00
      -24  1    1    2    0    0 -7.6464210847e+03 -3.2635142396e+03 -4.9467592922e+02 8.3288269007e+03 7.9829010000e+01 0.0000e+00 -1.0000e+00
       24  1    1    2    0    0 +9.2445215179e+03 +3.7656237547e+03 +4.4710547539e+02 9.9923659027e+03 7.9829010000e+01 0.0000e+00 -1.0000e+00
       22  1    1    2    0    0 -1.5772164948e+03 -4.8181153570e+02 +4.8304047344e+01 1.6498749978e+03 0.0000000000e+00 0.0000e+00 -1.0000e+00
       22  1    1    2    0    0 -2.0883938360e+01 -2.0297979357e+01 -7.3359351432e-01 2.9132198799e+01 0.0000000000e+00 0.0000e+00 -1.0000e+00
</event>
<event>
 6      1 +1.4834189e-01 1.00827800e+04 7.81653100e-03 6.93375100e-02
  1000022 -1    0    0    0    0 +0.0000000000e+00 +0.0000000000e+00 +4.4721471353e+01 1.0000100000e+04 1.0000000000e+04 0.0000e+00 1.0000e+00
  1000022 -1    0    0    0    0 -0.0000000000e+00 -0.0000000000e+00 -4.4721471353e+01 1.0000100000e+04 1.0000000000e+04 0.0000e+00 1.0000e+00
      -24  1    1    2    0    0 -4.4442631589e+02 +1.9300813744e+02 -2.0624661001e+01 4.9149256236e+02 7.9829010000e+01 0.0000e+00 1.0000e+00
       24  1    1    2    0    0 +6.1873254363e+03 -1.9567576367e+03 -6.4709479084e+03 9.1646841739e+03 7.9829010000e+01 0.0000e+00 1.0000e+00
       22  1    1    2    0    0 +4.2858451910e+02 -2.2911736263e+02 -5.7483171382e+02 7.5273564754e+02 0.0000000000e+00 0.0000e+00 -1.0000e+00
       22  1    1    2    0    0 -6.1714836395e+03 +1.9928668618e+03 +7.0664042833e+03 9.5912876162e+03 0.0000000000e+00 0.0000e+00 1.0000e+00
</event>
<event>
 6      1 +1.4834189e-01 1.00050600e+04 7.81653100e-03 6.93842000e-02
  1000022 -1    0    0    0    0 +0.0000000000e+00 +0.0000000000e+00 +4.4721471353e+01 1.0000100000e+04 1.0000000000e+04 0.0000e+00 -1.0000e+00
  1000022 -1    0    0    0    0 -0.0000000000e+00 -0.0000000000e+00 -4.4721471353e+01 1.0000100000e+04 1.0000000000e+04 0.0000e+00 -1.0000e+00
      -24  1    1    2    0    0 -9.0385955127e+03 -2.4303416166e+03 +3.2885579629e+03 9.9208747276e+03 7.9829010000e+01 0.0000e+00 -1.0000e+00
       24  1    1    2    0    0 +9.0034778303e+03 +2.3996730924e+03 -3.2343884088e+03 9.8635026761e+03 7.9829010000e+01 0.0000e+00 -1.0000e+00
       22  1    1    2    0    0 -8.2261681893e+01 +1.7478752540e+01 +3.9278862969e+00 8.4189781975e+01 0.0000000000e+00 0.0000e+00 -1.0000e+00
       22  1    1    2    0    0 +1.1737936426e+02 +1.3189771687e+01 -5.8097440399e+01 1.3163281434e+02 0.0000000000e+00 0.0000e+00 1.0000e+00
</event>
<event>
 6      1 +1.4834189e-01 1.01030800e+04 7.81653100e-03 6.93253900e-02
  1000022 -1    0    0    0    0 +0.0000000000e+00 +0.0000000000e+00 +4.4721471353e+01 1.0000100000e+04 1.0000000000e+04 0.0000e+00 -1.0000e+00
  1000022 -1    0    0    0    0 -0.0000000000e+00 -0.0000000000e+00 -4.4721471353e+01 1.0000100000e+04 1.0000000000e+04 0.0000e+00 -1.0000e+00
      -24  1    1    2    0    0 -2.6446284718e+03 -3.9479595267e+03 +7.9237510251e+03 9.2397319852e+03 7.9829010000e+01 0.0000e+00 -1.0000e+00
       24  1    1    2    0    0 +2.4405525204e+03 +4.4138597480e+03 -7.7227765845e+03 9.2242129922e+03 7.9829010000e+01 0.0000e+00 -1.0000e+00
       22  1    1    2    0    0 -2.3550817753e+02 -2.9190013141e+02 +5.3989942042e+02 6.5738966570e+02 0.0000000000e+00 0.0000e+00 -1.0000e+00
       22  1    1    2    0    0 +4.3958412894e+02 -1.7400008990e+02 -7.4087386105e+02 8.7886535697e+02 0.0000000000e+00 0.0000e+00 1.0000e+00
</event>
<event>
 6      1 +1.4834189e-01 1.05520100e+04 7.81653100e-03 6.90643400e-02
  1000022 -1    0    0    0    0 +0.0000000000e+00 +0.0000000000e+00 +4.4721471353e+01 1.0000100000e+04 1.0000000000e+04 0.0000e+00 1.0000e+00
  1000022 -1    0    0    0    0 -0.0000000000e+00 -0.0000000000e+00 -4.4721471353e+01 1.0000100000e+04 1.0000000000e+04 0.0000e+00 1.0000e+00
      -24  1    1    2    0    0 -2.9626903731e+03 +4.7015401818e+03 -6.6437283315e+03 8.6618423642e+03 7.9829010000e+01 0.0000e+00 -1.0000e+00
       24  1    1    2    0    0 +1.9426303934e+03 -4.6057574143e+03 +8.0171729249e+03 9.4481875819e+03 7.9829010000e+01 0.0000e+00 -1.0000e+00
       22  1    1    2    0    0 +1.1152788092e+03 -2.2495940218e+02 -1.2186689157e+03 1.6672154873e+03 0.0000000000e+00 0.0000e+00 1.0000e+00
       22  1    1    2    0    0 -9.5218829455e+01 +1.2917663461e+02 -1.5477567762e+02 2.2295456666e+02 0.0000000000e+00 0.0000e+00 -1.0000e+00
</event>
<event>
 6      1 +1.4834189e-01 1.00002400e+04 7.81653100e-03 6.93871100e-02
  1000022 -1    0    0    0    0 +0.0000000000e+00 +0.0000000000e+00 +4.4721471353e+01 1.0000100000e+04 1.0000000000e+04 0.0000e+00 1.0000e+00
  1000022 -1    0    0    0    0 -0.0000000000e+00 -0.0000000000e+00 -4.4721471353e+01 1.0000100000e+04 1.0000000000e+04 0.0000e+00 1.0000e+00
      -24  1    1    2    0    0 -7.9795605282e+03 -5.4066404848e+03 +6.4448646293e+02 9.6605839899e+03 7.9829010000e+01 0.0000e+00 1.0000e+00
       24  1    1    2    0    0 +7.7982353090e+03 +5.2705667347e+03 -6.2230244855e+02 9.4331850744e+03 7.9829010000e+01 0.0000e+00 1.0000e+00
       22  1    1    2    0    0 +4.6707105146e+02 +3.1942204789e+02 -3.2290129755e+01 5.6677020411e+02 0.0000000000e+00 0.0000e+00 1.0000e+00
       22  1    1    2    0    0 -2.8574583229e+02 -1.8334829782e+02 +1.0106115373e+01 3.3966073154e+02 0.0000000000e+00 0.0000e+00 1.0000e+00
</event>
<event>
 6      1 +1.4834189e-01 1.14665700e+04 7.81653100e-03 6.85707600e-02
  1000022 -1    0    0    0    0 +0.0000000000e+00 +0.0000000000e+00 +4.4721471353e+01 1.0000100000e+04 1.0000000000e+04 0.0000e+00 1.0000e+00
  1000022 -1    0    0    0    0 -0.0000000000e+00 -0.0000000000e+00 -4.4721471353e+01 1.0000100000e+04 1.0000000000e+04 0.0000e+00 1.0000e+00
      -24  1    1    2    0    0 +6.6768252987e+03 -2.7766832147e+03 +2.4228454767e+02 7.2356782831e+03 7.9829010000e+01 0.0000e+00 1.0000e+00
       24  1    1    2    0    0 -2.3691795745e+03 -6.3249929049e+01 -6.5833946068e+02 2.4610558559e+03 7.9829010000e+01 0.0000e+00 1.0000e+00
       22  1    1    2    0    0 +1.2290907057e+03 +2.8144734475e+03 +2.9100673786e+03 4.2308884288e+03 0.0000000000e+00 0.0000e+00 1.0000e+00
       22  1    1    2    0    0 -5.5367364299e+03 +2.5459696243e+01 -2.4940124656e+03 6.0725774321e+03 0.0000000000e+00 0.0000e+00 1.0000e+00
</event>
<event>
 6      1 +1.4834189e-01 9.06135900e+03 7.81653100e-03 6.99876500e-02
  1000022 -1    0    0    0    0 +0.0000000000e+00 +0.0000000000e+00 +4.4721471353e+01 1.0000100000e+04 1.0000000000e+04 0.0000e+00 -1.0000e+00
  1000022 -1    0    0    0    0 -0.0000000000e+00 -0.0000000000e+00 -4.4721471353e+01 1.0000100000e+04 1.0000000000e+04 0.0000e+00 -1.0000e+00
      -24  1    1    2    0    0 +5.2822999503e+03 -6.2357997691e+03 +9.6897369973e+02 8.2300166602e+03 7.9829010000e+01 0.0000e+00 -1.0000e+00
       24  1    1    2    0    0 +7.0998121203e+01 -1.0551704029e+02 -5.9780909276e+01 1.6161994604e+02 7.9829010000e+01 0.0000e+00 1.0000e+00
       22  1    1    2    0    0 +1.1156536025e+03 -1.1647337993e+03 +2.4957815779e+02 1.6320468868e+03 0.0000000000e+00 0.0000e+00 -1.0000e+00
       22  1    1    2    0    0 -6.4689516741e+03 +7.5060506087e+03 -1.1587709482e+03 9.9765165069e+03 0.0000000000e+00 0.0000e+00 -1.0000e+00
</event>
<event>
 6      1 +1.4834189e-01 1.00217100e+04 7.81653100e-03 6.93741600e-02
  1000022 -1    0    0    0    0 +0.0000000000e+00 +0.0000000000e+00 +4.4721471353e+01 1.0000100000e+04 1.0000000000e+04 0.0000e+00 1.0000e+00
  1000022 -1    0    0    0    0 -0.0000000000e+00 -0.0000000000e+00 -4.4721471353e+01 1.0000100000e+04 1.0000000000e+04 0.0000e+00 1.0000e+00
      -24  1    1    2    0    0 +4.6838986995e+02 +9.3631646042e+03 -3.2167618451e+02 9.3807296472e+03 7.9829010000e+01 0.0000e+00 1.0000e+00
       24  1    1    2    0    0 -3.7505057375e+02 -9.7802565921e+03 +5.3218399142e+02 9.8022280330e+03 7.9829010000e+01 0.0000e+00 1.0000e+00
       22  1    1    2    0    0 -8.8480026105e+01 +5.9239481300e+02 -2.2823815745e+02 6.4097814784e+02 0.0000000000e+00 0.0000e+00 -1.0000e+00
       22  1    1    2    0    0 -4.8592700927e+00 -1.7530282509e+02 +1.7730350548e+01 1.7626417197e+02 0.0000000000e+00 0.0000e+00 1.0000e+00
</event>
<event>
 6      1 +1.4834189e-01 1.00008500e+04 7.81653100e-03 6.93867400e-02
  1000022 -1    0    0    0    0 +0.0000000000e+00 +0.0000000000e+00 +4.4721471353e+01 1.0000100000e+04 1.0000000000e+04 0.0000e+00 1.0000e+00
  1000022 -1    0    0    0    0 -0.0000000000e+00 -0.0000000000e+00 -4.4721471353e+01 1.0000100000e+04 1.0000000000e+04 0.0000e+00 1.0000e+00
      -24  1    1    2    0    0 -2.2140967720e+03 -7.9781789449e+03 -3.7771229881e+03 9.1009117418e+03 7.9829010000e+01 0.0000e+00 -1.0000e+00
       24  1    1    2    0    0 +1.0739245160e+03 +4.0215974371e+03 +1.9378761775e+03 4.5921995343e+03 7.9829010000e+01 0.0000e+00 -1.0000e+00
       22  1    1    2    0    0 +1.2965049489e+03 +4.7570739047e+03 +2.2195920872e+03 5.4071495495e+03 0.0000000000e+00 0.0000e+00 -1.0000e+00
       22  1    1    2    0    0 -1.5633269283e+02 -8.0049239687e+02 -3.8034527659e+02 8.9993917446e+02 0.0000000000e+00 0.0000e+00 1.0000e+00
</event>
<event>
 6      1 +1.4834189e-01 1.00236000e+04 7.81653100e-03 6.93730200e-02
  1000022 -1    0    0    0    0 +0.0000000000e+00 +0.0000000000e+00 +4.4721471353e+01 1.0000100000e+04 1.0000000000e+04 0.0000e+00 1.0000e+00
  1000022 -1    0    0    0    0 -0.0000000000e+00 -0.0000000000e+00 -4.4721471353e+01 1.0000100000e+04 1.0000000000e+04 0.0000e+00 1.0000e+00
      -24  1    1    2    0    0 -6.4424804237e+03 -3.2404630335e+03 +6.2274786349e+03 9.5285894811e+03 7.9829010000e+01 0.0000e+00 1.0000e+00
       24  1    1    2    0    0 +5.9141056138e+03 +2.7592811755e+03 -5.2300897301e+03 8.3636408981e+03 7.9829010000e+01 0.0000e+00 1.0000e+00
       22  1    1    2    0    0 -2.7795072752e+02 -2.2401261189e+02 +2.7068730272e+02 4.4800655471e+02 0.0000000000e+00 0.0000e+00 -1.0000e+00
       22  1    1    2    0    0 +8.0632553742e+02 +7.0519446992e+02 -1.2680762075e+03 1.6599630661e+03 0.0000000000e+00 0.0000e+00 1.0000e+00
</event>
<event>
 6      1 +1.4834189e-01 1.00558700e+04 7.81653100e-03 6.93536300e-02
  1000022 -1    0    0    0    0 +0.0000000000e+00 +0.0000000000e+00 +4.4721471353e+01 1.0000100000e+04 1.0000000000e+04 0.0000e+00 1.0000e+00
  1000022 -1    0    0    0    0 -0.0000000000e+00 -0.0000000000e+00 -4.4721471353e+01 1.0000100000e+04 1.0000000000e+04 0.0000e+00 1.0000e+00
      -24  1    1    2    0    0 -1.3285713370e+03 -1.2537055361e+03 +3.9264121524e+02 1.8701388087e+03 7.9829010000e+01 0.0000e+00 1.0000e+00
       24  1    1    2    0    0 +5.8573459137e+03 +7.7724660139e+03 +7.6771232716e+02 9.7629649174e+03 7.9829010000e+01 0.0000e+00 -1.0000e+00
       22  1    1    2    0    0 -4.6432959571e+03 -6.6495681416e+03 -1.1087003483e+03 8.1857296729e+03 0.0000000000e+00 0.0000e+00 -1.0000e+00
       22  1    1    2    0    0 +1.1452138049e+02 +1.3080766383e+02 -5.1653194054e+01 1.8136660101e+02 0.0000000000e+00 0.0000e+00 -1.0000e+00
</event>
<event>
 6      1 +1.4834189e-01 1.00058900e+04 7.81653100e-03 6.93837000e-02
  1000022 -1    0    0    0    0 +0.0000000000e+00 +0.0000000000e+00 +4.4721471353e+01 1.0000100000e+04 1.0000000000e+04 0.0000e+00 1.0000e+00
  1000022 -1    0    0    0    0 -0.0000000000e+00 -0.0000000000e+00 -4.4721471353e+01 1.0000100000e+04 1.0000000000e+04 0.0000e+00 1.0000e+00
      -24  1    1    2    0    0 -6.0646354938e+03 -7.7380191362e+03 +8.3612170216e+02 9.8672293982e+03 7.9829010000e+01 0.0000e+00 -1.0000e+00
       24  1    1    2    0    0 +6.1536229592e+03 +7.8329722370e+03 -8.1078944494e+02 9.9943124718e+03 7.9829010000e+01 0.0000e+00 -1.0000e+00
       22  1    1    2    0    0 -3.9266893103e+01 -5.3098986231e+01 +6.3689200988e+00 6.6347225834e+01 0.0000000000e+00 0.0000e+00 1.0000e+00
       22  1    1    2    0    0 -4.9720572269e+01 -4.1854114551e+01 -3.1701177320e+01 7.2310904123e+01 0.0000000000e+00 0.0000e+00 1.0000e+00
</event>
<event>
 6      1 +1.4834189e-01 1.10609500e+04 7.81653100e-03 6.87837500e-02
  1000022 -1    0    0    0    0 +0.0000000000e+00 +0.0000000000e+00 +4.4721471353e+01 1.0000100000e+04 1.0000000000e+04 0.0000e+00 -1.0000e+00
  1000022 -1    0    0    0    0 -0.0000000000e+00 -0.0000000000e+00 -4.4721471353e+01 1.0000100000e+04 1.0000000000e+04 0.0000e+00 -1.0000e+00
      -24  1    1    2    0    0 -1.6904960287e+03 -5.2712088055e+03 -5.0528089698e+03 7.4953765916e+03 7.9829010000e+01 0.0000e+00 -1.0000e+00
       24  1    1    2    0    0 +5.2222304409e+03 +4.9634397772e+03 +5.2468557153e+03 8.9130966991e+03 7.9829010000e+01 0.0000e+00 -1.0000e+00
       22  1    1    2    0    0 +1.6091902486e+01 +1.7531424531e+01 +1.0855306617e+01 2.6156029008e+01 0.0000000000e+00 0.0000e+00 -1.0000e+00
       22  1    1    2    0    0 -3.5478263146e+03 +2.9023760377e+02 -2.0490205215e+02 3.5655706803e+03 0.0000000000e+00 0.0000e+00 -1.0000e+00
</event>
<event>
 6      1 +1.4834189e-01 1.00635900e+04 7.81653100e-03 6.93490000e-02
  1000022 -1    0    0    0    0 +0.0000000000e+00 +0.0000000000e+00 +4.4721471353e+01 1.0000100000e+04 1.0000000000e+04 0.0000e+00 -1.0000e+00
  1000022 -1    0    0    0    0 -0.0000000000e+00 -0.0000000000e+00 -4.4721471353e+01 1.0000100000e+04 1.0000000000e+04 0.0000e+00 -1.0000e+00
      -24  1    1    2    0    0 -6.2032825631e+03 -1.1727918413e+01 +7.5301179396e+03 9.7565311949e+03 7.9829010000e+01 0.0000e+00 1.0000e+00
       24  1    1    2    0    0 +6.2655375503e+03 +1.2670298644e+02 -7.7038747201e+03 9.9312170862e+03 7.9829010000e+01 0.0000e+00 1.0000e+00
       22  1    1    2    0    0 -9.2455329174e+01 +1.2385551659e+01 +1.5404035926e+02 1.8008282002e+02 0.0000000000e+00 0.0000e+00 1.0000e+00
       22  1    1    2    0    0 +3.0200342032e+01 -1.2736061968e+02 +1.9716421167e+01 1.3236889880e+02 0.0000000000e+00 0.0000e+00 1.0000e+00
</event>
<event>
 6      1 +1.4834189e-01 1.00014100e+04 7.81653100e-03 6.93864100e-02
  1000022 -1    0    0    0    0 +0.0000000000e+00 +0.0000000000e+00 +4.4721471353e+01 1.0000100000e+04 1.0000000000e+04 0.0000e+00 -1.0000e+00
  1000022 -1    0    0    0    0 -0.0000000000e+00 -0.0000000000e+00 -4.4721471353e+01 1.0000100000e+04 1.0000000000e+04 0.0000e+00 -1.0000e+00
      -24  1    1    2    0    0 -2.3454706216e+03 +9.6884987774e+03 -4.8370322879e+02 9.9804099355e+03 7.9829010000e+01 0.0000e+00 -1.0000e+00
       24  1    1    2    0    0 +2.2763897688e+03 -9.5397977208e+03 +4.6743959720e+02 9.8190917798e+03 7.9829010000e+01 0.0000e+00 -1.0000e+00
       22  1    1    2    0    0 -1.0995481610e+01 +1.4510986203e+01 +2.5517563974e+00 1.8384254054e+01 0.0000000000e+00 0.0000e+00 -1.0000e+00
       22  1    1    2    0    0 +8.0076334365e+01 -1.6321204280e+02 +1.3711875197e+01 1.8231403063e+02 0.0000000000e+00 0.0000e+00 1.0000e+00
</event>
<event>
 6      1 +1.4834189e-01 1.00024100e+04 7.81653100e-03 6.93858000e-02
  1000022 -1    0    0    0    0 +0.0000000000e+00 +0.0000000000e+00 +4.4721471353e+01 1.0000100000e+04 1.0000000000e+04 0.0000e+00 -1.0000e+00
  1000022 -1    0    0    0    0 -0.0000000000e+00 -0.0000000000e+00 -4.4721471353e+01 1.0000100000e+04 1.0000000000e+04 0.0000e+00 -1.0000e+00
      -24  1    1    2    0    0 -9.6166971120e+03 +3.6767292192e+02 +2.3108913813e+03 9.8976077094e+03 7.9829010000e+01 0.0000e+00 1.0000e+00
       24  1    1    2    0    0 +9.3530315202e+03 -3.1864439463e+02 -2.2013615837e+03 9.6142133512e+03 7.9829010000e+01 0.0000e+00 1.0000e+00
       22  1    1    2    0    0 +3.6087831296e+02 -5.0915308074e+01 -1.3367646017e+02 3.8819443757e+02 0.0000000000e+00 0.0000e+00 1.0000e+00
       22  1    1    2    0    0 -9.7212721167e+01 +1.8867807812e+00 +2.4146662521e+01 1.0018450184e+02 0.0000000000e+00 0.0000e+00 -1.0000e+00
</event>
<event>
 6      1 +1.4834189e-01 8.88898700e+03 7.81653100e-03 7.01058600e-02
  1000022 -1    0    0    0    0 +0.0000000000e+00 +0.0000000000e+00 +4.4721471353e+01 1.0000100000e+04 1.0000000000e+04 0.0000e+00 -1.0000e+00
  1000022 -1    0    0    0    0 -0.0000000000e+00 -0.0000000000e+00 -4.4721471353e+01 1.0000100000e+04 1.0000000000e+04 0.0000e+00 -1.0000e+00
      -24  1    1    2    0    0 +7.9970818362e+02 +3.4207371648e+02 +1.9258689867e+03 2.1146847593e+03 7.9829010000e+01 0.0000e+00 -1.0000e+00
       24  1    1    2    0    0 -9.9789534995e+02 -4.6268290063e+02 -7.7237739613e+01 1.1055355875e+03 7.9829010000e+01 0.0000e+00 1.0000e+00
       22  1    1    2    0    0 +8.1028761442e+03 +2.3878339716e+03 -6.9292448964e+02 8.4757593897e+03 0.0000000000e+00 0.0000e+00 -1.0000e+00
       22  1    1    2    0    0 -7.9046889779e+03 -2.2672247874e+03 -1.1557067575e+03 8.3042202634e+03 0.0000000000e+00 0.0000e+00 -1.0000e+00
</event>
<event>
 6      1 +1.4834189e-01 1.01657400e+04 7.81653100e-03 6.92881400e-02
  1000022 -1    0    0    0    0 +0.0000000000e+00 +0.0000000000e+00 +4.4721471353e+01 1.0000100000e+04 1.0000000000e+04 0.0000e+00 -1.0000e+00
  1000022 -1    0    0    0    0 -0.0000000000e+00 -0.0000000000e+00 -4.4721471353e+01 1.0000100000e+04 1.0000000000e+04 0.0000e+00 -1.0000e+00
      -24  1    1    2    0    0 +8.6556944635e+03 +5.1651438024e+01 -3.4335231917e+03 9.3123127469e+03 7.9829010000e+01 0.0000e+00 1.0000e+00
       24  1    1    2    0    0 -3.0561632551e+03 +3.6044191709e+02 +2.5044718324e+03 3.9684762879e+03 7.9829010000e+01 0.0000e+00 1.0000e+00
       22  1    1    2    0    0 -6.0788957619e+03 -4.0367646670e+02 +1.1358670984e+03 6.1972673364e+03 0.0000000000e+00 0.0000e+00 1.0000e+00
       22  1    1    2    0    0 +4.7936455353e+02 -8.4168884063e+00 -2.0681573903e+02 5.2214362880e+02 0.0000000000e+00 0.0000e+00 -1.0000e+00
</event>
<event>
 6      1 +1.4834189e-01 1.02229600e+04 7.81653100e-03 6.92543600e-02
  1000022 -1    0    0    0    0 +0.0000000000e+00 +0.0000000000e+00 +4.4721471353e+01 1.0000100000e+04 1.0000000000e+04 0.0000e+00 1.0000e+00
  1000022 -1    0    0    0    0 -0.0000000000e+00 -0.0000000000e+00 -4.4721471353e+01 1.0000100000e+04 1.0000000000e+04 0.0000e+00 1.0000e+00
      -24  1    1    2    0    0 -1.0076319045e+03 -1.1002764067e+03 +3.9457570297e+03 4.2191588539e+03 7.9829010000e+01 0.0000e+00 1.0000e+00
       24  1    1    2    0    0 +1.3161315943e+03 +5.5666367971e+03 -7.9289620982e+03 9.7772419542e+03 7.9829010000e+01 0.0000e+00 1.0000e+00
       22  1    1    2    0    0 +1.2798960522e+01 +1.3566234582e+00 +9.8830994531e+00 1.6227429631e+01 0.0000000000e+00 0.0000e+00 1.0000e+00
       22  1    1    2    0    0 -3.2129865039e+02 -4.4677170139e+03 +3.9733219691e+03 5.9875717623e+03 0.0000000000e+00 0.0000e+00 1.0000e+00
</event>
<event>
 6      1 +1.4834189e-01 1.04194100e+04 7.81653100e-03 6.91400600e-02
  1000022 -1    0    0    0    0 +0.0000000000e+00 +0.0000000000e+00 +4.4721471353e+01 1.0000100000e+04 1.0000000000e+04 0.0000e+00 1.0000e+00
  1000022 -1    0    0    0    0 -0.0000000000e+00 -0.0000000000e+00 -4.4721471353e+01 1.0000100000e+04 1.0000000000e+04 0.0000e+00 1.0000e+00
      -24  1    1    2    0    0 +1.0167965585e+03 -8.3903648865e+03 -4.5114324428e+03 9.5807877300e+03 7.9829010000e+01 0.0000e+00 1.0000e+00
       24  1    1    2    0    0 -8.1369674429e+02 +7.3560117115e+03 +2.5226260031e+03 7.8194005725e+03 7.9829010000e+01 0.0000e+00 1.0000e+00
       22  1    1    2    0    0 +2.5286640528e+02 -1.8927664693e+02 +6.8702149991e+02 7.5615184277e+02 0.0000000000e+00 0.0000e+00 -1.0000e+00
       22  1    1    2    0    0 -4.5596621951e+02 +1.2236298219e+03 +1.3017849398e+03 1.8438598547e+03 0.0000000000e+00 0.0000e+00 -1.0000e+00
</event>
<event>
 6      1 +1.4834189e-01 1.00247600e+04 7.81653100e-03 6.93723200e-02
  1000022 -1    0    0    0    0 +0.0000000000e+00 +0.0000000000e+00 +4.4721471353e+01 1.0000100000e+04 1.0000000000e+04 0.0000e+00 -1.0000e+00
  1000022 -1    0    0    0    0 -0.0000000000e+00 -0.0000000000e+00 -4.4721471353e+01 1.0000100000e+04 1.0000000000e+04 0.0000e+00 -1.0000e+00
      -24  1    1    2    0    0 -4.6217639347e+03 -6.4892930114e+03 +3.9694574346e+03 8.9013813901e+03 7.9829010000e+01 0.0000e+00 1.0000e+00
       24  1    1    2    0    0 +5.0796891143e+03 +7.4380446160e+03 -4.2866355179e+03 9.9754381328e+03 7.9829010000e+01 0.0000e+00 1.0000e+00
       22  1    1    2    0    0 -3.1299148452e+02 -4.3911119842e+02 +2.3070971576e+02 5.8652304892e+02 0.0000000000e+00 0.0000e+00 1.0000e+00
       22  1    1    2    0    0 -1.4493369502e+02 -5.0964040622e+02 +8.6468367476e+01 5.3685742817e+02 0.0000000000e+00 0.0000e+00 1.0000e+00
</event>
<event>
 6      1 +1.4834189e-01 1.00030700e+04 7.81653100e-03 6.93854000e-02
  1000022 -1    0    0    0    0 +0.0000000000e+00 +0.0000000000e+00 +4.4721471353e+01 1.0000100000e+04 1.0000000000e+04 0.0000e+00 -1.0000e+00
  1000022 -1    0    0    0    0 -0.0000000000e+00 -0.0000000000e+00 -4.4721471353e+01 1.0000100000e+04 1.0000000000e+04 0.0000e+00 -1.0000e+00
      -24  1    1    2    0    0 -1.3020509136e+03 +2.1054304132e+03 +5.9104003667e+02 2.5463453816e+03 7.9829010000e+01 0.0000e+00 -1.0000e+00
       24  1    1    2    0    0 +4.3695778913e+03 -8.4081806967e+03 -2.4969053450e+03 9.7995725697e+03 7.9829010000e+01 0.0000e+00 -1.0000e+00
       22  1    1    2    0    0 +4.2073400653e+01 -1.8182619353e+02 -6.4781264292e+01 1.9755391138e+02 0.0000000000e+00 0.0000e+00 -1.0000e+00
       22  1    1    2    0    0 -3.1096003783e+03 +6.4845764771e+03 +1.9706465726e+03 7.4567281373e+03 0.0000000000e+00 0.0000e+00 -1.0000e+00
</event>
<event>
 6      1 +1.4834189e-01 1.00012400e+04 7.81653100e-03 6.93865000e-02
  1000022 -1    0    0    0    0 +0.0000000000e+00 +0.0000000000e+00 +4.4721471353e+01 1.0000100000e+04 1.0000000000e+04 0.0000e+00 -1.0000e+00
  1000022 -1    0    0    0    0 -0.0000000000e+00 -0.0000000000e+00 -4.4721471353e+01 1.0000100000e+04 1.0000000000e+04 0.0000e+00 -1.0000e+00
      -24  1    1    2    0    0 +7.5802633813e+03 -4.2820639850e+03 +4.8804153411e+03 9.9810466121e+03 7.9829010000e+01 0.0000e+00 1.0000e+00
       24  1    1    2    0    0 -3.6697968579e+03 +2.1170541883e+03 -2.5168856804e+03 4.9285305734e+03 7.9829010000e+01 0.0000e+00 -1.0000e+00
       22  1    1    2    0    0 -3.9125681030e+03 +2.1807918081e+03 -2.3759571889e+03 5.0704254885e+03 0.0000000000e+00 0.0000e+00 1.0000e+00
       22  1    1    2    0    0 +2.1015796378e+00 -1.5782011319e+01 +1.2427528197e+01 2.0197325945e+01 0.0000000000e+00 0.0000e+00 1.0000e+00
</event>
<event>
 6      1 +1.4834189e-01 1.00009000e+04 7.81653100e-03 6.93867100e-02
  1000022 -1    0    0    0    0 +0.0000000000e+00 +0.0000000000e+00 +4.4721471353e+01 1.0000100000e+04 1.0000000000e+04 0.0000e+00 -1.0000e+00
  1000022 -1    0    0    0    0 -0.0000000000e+00 -0.0000000000e+00 -4.4721471353e+01 1.0000100000e+04 1.0000000000e+04 0.0000e+00 -1.0000e+00
      -24  1    1    2    0    0 +3.1584953664e+03 +8.0051360039e+03 +4.5372911573e+03 9.7289094526e+03 7.9829010000e+01 0.0000e+00 -1.0000e+00
       24  1    1    2    0    0 -3.2410457566e+03 -8.2142375407e+03 -4.6628124603e+03 9.9863040552e+03 7.9829010000e+01 0.0000e+00 -1.0000e+00
       22  1    1    2    0    0 +1.2734783242e+00 -1.4040885229e+01 -3.7635981707e+00 1.4592219716e+01 0.0000000000e+00 0.0000e+00 1.0000e+00
       22  1    1    2    0    0 +8.1276911906e+01 +2.2314242203e+02 +1.2928490123e+02 2.7039427251e+02 0.0000000000e+00 0.0000e+00 1.0000e+00
</event>
<event>
 6      1 +1.4834189e-01 1.04243100e+04 7.81653100e-03 6.91372500e-02
  1000022 -1    0    0    0    0 +0.0000000000e+00 +0.0000000000e+00 +4.4721471353e+01 1.0000100000e+04 1.0000000000e+04 0.0000e+00 1.0000e+00
  1000022 -1    0    0    0    0 -0.0000000000e+00 -0.0000000000e+00 -4.4721471353e+01 1.0000100000e+04 1.0000000000e+04 0.0000e+00 1.0000e+00
      -24  1    1    2    0    0 -7.2511367868e+03 +9.8485023016e+02 -5.6314989197e+03 9.2341251579e+03 7.9829010000e+01 0.0000e+00 1.0000e+00
       24  1    1    2    0    0 +1.9174689149e+03 -4.5630392704e+02 +4.0679284750e+03 4.5209860718e+03 7.9829010000e+01 0.0000e+00 1.0000e+00
       22  1    1    2    0    0 +5.6033175012e+03 -5.6231735896e+02 +1.7708248704e+03 5.9033201297e+03 0.0000000000e+00 0.0000e+00 1.0000e+00
       22  1    1    2    0    0 -2.6964962926e+02 +3.3771055837e+01 -2.0725442567e+02 3.4176864065e+02 0.0000000000e+00 0.0000e+00 -1.0000e+00
</event>
<event>
 6      1 +1.4834189e-01 1.00008800e+04 7.81653100e-03 6.93867200e-02
  1000022 -1    0    0    0    0 +0.0000000000e+00 +0.0000000000e+00 +4.4721471353e+01 1.0000100000e+04 1.0000000000e+04 0.0000e+00 1.0000e+00
  1000022 -1    0    0    0    0 -0.0000000000e+00 -0.0000000000e+00 -4.4721471353e+01 1.0000100000e+04 1.0000000000e+04 0.0000e+00 1.0000e+00
      -24  1    1    2    0    0 -3.8826599938e+03 -4.6172102981e+03 +7.8928700844e+03 9.9346590482e+03 7.9829010000e+01 0.0000e+00 1.0000e+00
       24  1    1    2    0    0 +3.8986298171e+03 +4.6135099272e+03 -7.9131395458e+03 9.9552970041e+03 7.9829010000e+01 0.0000e+00 1.0000e+00
       22  1    1    2    0    0 -3.1776825930e+01 -1.7719969426e+01 +5.5330822058e+01 6.6221324755e+01 0.0000000000e+00 0.0000e+00 1.0000e+00
       22  1    1    2    0    0 +1.5807002603e+01 +2.1420340313e+01 -3.5061360723e+01 4.4022622890e+01 0.0000000000e+00 0.0000e+00 -1.0000e+00
</event>
<event>
 6      1 +1.4834189e-01 1.00245800e+04 7.81653100e-03 6.93724300e-02
  1000022 -1    0    0    0    0 +0.0000000000e+00 +0.0000000000e+00 +4.4721471353e+01 1.0000100000e+04 1.0000000000e+04 0.0000e+00 -1.0000e+00
  1000022 -1    0    0    0    0 -0.0000000000e+00 -0.0000000000e+00 -4.4721471353e+01 1.0000100000e+04 1.0000000000e+04 0.0000e+00 -1.0000e+00
      -24  1    1    2    0    0 +1.0982404495e+03 +7.2636073710e+03 +6.0382428593e+03 9.5096200567e+03 7.9829010000e+01 0.0000e+00 1.0000e+00
       24  1    1    2    0    0 -9.3101348156e+02 -7.6047697995e+03 -6.3689614359e+03 9.9634006368e+03 7.9829010000e+01 0.0000e+00 1.0000e+00
       22  1    1    2    0    0 +8.2212766382e+00 -6.9980916756e+00 -5.7168237272e+00 1.2216576861e+01 0.0000000000e+00 0.0000e+00 1.0000e+00
       22  1    1    2    0    0 -1.7544824455e+02 +3.4816052016e+02 +3.3643540038e+02 5.1496272967e+02 0.0000000000e+00 0.0000e+00 -1.0000e+00
</event>
<event>
 6      1 +1.4834189e-01 1.01498300e+04 7.81653100e-03 6.92975700e-02
  1000022 -1    0    0    0    0 +0.0000000000e+00 +0.0000000000e+00 +4.4721471353e+01 1.0000100000e+04 1.0000000000e+04 0.0000e+00 1.0000e+00
  1000022 -1    0    0    0    0 -0.0000000000e+00 -0.0000000000e+00 -4.4721471353e+01 1.0000100000e+04 1.0000000000e+04 0.0000e+00 1.0000e+00
      -24  1    1    2    0    0 +6.9674063513e+01 +8.5224462334e+02 -2.8067229932e+02 9.0350704678e+02 7.9829010000e+01 0.0000e+00 1.0000e+00
       24  1    1    2    0    0 -6.7582000318e+03 -5.1024723104e+03 +5.0313891811e+03 9.8503675622e+03 7.9829010000e+01 0.0000e+00 1.0000e+00
       22  1    1    2    0    0 +6.6578736673e+03 +4.2438557347e+03 -4.7517022278e+03 9.2150022967e+03 0.0000000000e+00 0.0000e+00 1.0000e+00
       22  1    1    2    0    0 +3.0652301013e+01 +6.3719523200e+00 +9.8534601996e-01 3.1323094364e+01 0.0000000000e+00 0.0000e+00 1.0000e+00
</event>
<event>
 6      1 +1.4834189e-01 1.00017300e+04 7.81653100e-03 6.93862100e-02
  1000022 -1    0    0    0    0 +0.0000000000e+00 +0.0000000000e+00 +4.4721471353e+01 1.0000100000e+04 1.0000000000e+04 0.0000e+00 -1.0000e+00
  1000022 -1    0    0    0    0 -0.0000000000e+00 -0.0000000000e+00 -4.4721471353e+01 1.0000100000e+04 1.0000000000e+04 0.0000e+00 -1.0000e+00
      -24  1    1    2    0    0 -3.3587834771e+03 +8.4642615051e+03 -4.1276926615e+03 9.9984683153e+03 7.9829010000e+01 0.0000e+00 -1.0000e+00
       24  1    1    2    0    0 +3.3222660378e+03 -8.3850675426e+03 +4.0712722340e+03 9.8958799303e+03 7.9829010000e+01 0.0000e+00 -1.0000e+00
       22  1    1    2    0    0 +1.8144412321e+01 -5.5478104492e+01 +2.8864689735e+01 6.5116895580e+01 0.0000000000e+00 0.0000e+00 -1.0000e+00
       22  1    1    2    0    0 +1.8373027044e+01 -2.3715858049e+01 +2.7555737699e+01 4.0734858854e+01 0.0000000000e+00 0.0000e+00 -1.0000e+00
</event>
<event>
 6      1 +1.4834189e-01 1.01656100e+04 7.81653100e-03 6.92882100e-02
  1000022 -1    0    0    0    0 +0.0000000000e+00 +0.0000000000e+00 +4.4721471353e+01 1.0000100000e+04 1.0000000000e+04 0.0000e+00 1.0000e+00
  1000022 -1    0    0    0    0 -0.0000000000e+00 -0.0000000000e+00 -4.4721471353e+01 1.0000100000e+04 1.0000000000e+04 0.0000e+00 1.0000e+00
      -24  1    1    2    0    0 +4.8603922216e+03 -7.7491945364e+03 -3.6109976823e+03 9.8345872025e+03 7.9829010000e+01 0.0000e+00 -1.0000e+00
       24  1    1    2    0    0 -2.5659378007e+03 +5.8758172646e+03 +2.9660243099e+03 7.0649089309e+03 7.9829010000e+01 0.0000e+00 -1.0000e+00
       22  1    1    2    0    0 -1.8182796079e+02 +3.9871661028e+02 +2.1699867266e+02 4.8900385129e+02 0.0000000000e+00 0.0000e+00 1.0000e+00
       22  1    1    2    0    0 -2.1126264601e+03 +1.4746606615e+03 +4.2797469971e+02 2.6117000153e+03 0.0000000000e+00 0.0000e+00 1.0000e+00
</event>
<event>
 6      1 +1.4834189e-01 9.86748100e+03 7.81653100e-03 6.94679000e-02
  1000022 -1    0    0    0    0 +0.0000000000e+00 +0.0000000000e+00 +4.4721471353e+01 1.0000100000e+04 1.0000000000e+04 0.0000e+00 1.0000e+00
  1000022 -1    0    0    0    0 -0.0000000000e+00 -0.0000000000e+00 -4.4721471353e+01 1.0000100000e+04 1.0000000000e+04 0.0000e+00 1.0000e+00
      -24  1    1    2    0    0 +5.4483919717e+00 -7.5317961495e+01 +2.4573724630e+02 2.6918756538e+02 7.9829010000e+01 0.0000e+00 -1.0000e+00
       24  1    1    2    0    0 -1.7816430390e+03 -8.3723998675e+03 -2.9443729558e+03 9.0524602310e+03 7.9829010000e+01 0.0000e+00 1.0000e+00
       22  1    1    2    0    0 -9.1657262309e+01 -7.8739003903e+02 -2.0572701615e+02 8.1896747950e+02 0.0000000000e+00 0.0000e+00 1.0000e+00
       22  1    1    2    0    0 +1.8678519094e+03 +9.2351078680e+03 +2.9043627257e+03 9.8595847241e+03 0.0000000000e+00 0.0000e+00 1.0000e+00
</event>
<event>
 6      1 +1.4834189e-01 1.00145500e+04 7.81653100e-03 6.93784800e-02
  1000022 -1    0    0    0    0 +0.0000000000e+00 +0.0000000000e+00 +4.4721471353e+01 1.0000100000e+04 1.0000000000e+04 0.0000e+00 -1.0000e+00
  1000022 -1    0    0    0    0 -0.0000000000e+00 -0.0000000000e+00 -4.4721471353e+01 1.0000100000e+04 1.0000000000e+04 0.0000e+00 -1.0000e+00
      -24  1    1    2    0    0 +7.4267803690e+03 -3.1116836427e+03 -5.7152402450e+03 9.8747144501e+03 7.9829010000e+01 0.0000e+00 1.0000e+00
       24  1    1    2    0    0 -7.4628859734e+03 +3.0285136657e+03 +5.6774463037e+03 9.8542544760e+03 7.9829010000e+01 0.0000e+00 1.0000e+00
       22  1    1    2    0    0 -9.9170169596e+01 +5.8550613472e+01 +6.3259330956e+01 1.3139497642e+02 0.0000000000e+00 0.0000e+00 1.0000e+00
       22  1    1    2    0    0 +1.3527577399e+02 +2.4619363522e+01 -2.5465389629e+01 1.3983609748e+02 0.0000000000e+00 0.0000e+00 1.0000e+00
</event>
<event>
 6      1 +1.4834189e-01 1.00074500e+04 7.81653100e-03 6.93827600e-02
  1000022 -1    0    0    0    0 +0.0000000000e+00 +0.0000000000e+00 +4.4721471353e+01 1.0000100000e+04 1.0000000000e+04 0.0000e+00 1.0000e+00
  1000022 -1    0    0    0    0 -0.0000000000e+00 -0.0000000000e+00 -4.4721471353e+01 1.0000100000e+04 1.0000000000e+04 0.0000e+00 1.0000e+00
      -24  1    1    2    0    0 -1.5548017047e+03 -9.0767134069e+03 -3.8156948276e+03 9.9684519510e+03 7.9829010000e+01 0.0000e+00 -1.0000e+00
       24  1    1    2    0    0 +1.4467031294e+03 +9.0158240645e+03 +3.7534820327e+03 9.8728432352e+03 7.9829010000e+01 0.0000e+00 -1.0000e+00
       22  1    1    2    0    0 +2.2661984908e+01 -1.5764391111e+01 +2.7551905213e+01 3.9002423872e+01 0.0000000000e+00 0.0000e+00 1.0000e+00
       22  1    1    2    0    0 +8.5436590393e+01 +7.6653733503e+01 +3.4660889607e+01 1.1990238991e+02 0.0000000000e+00 0.0000e+00 1.0000e+00
</event>
<event>
 6      1 +1.4834189e-01 1.00144700e+04 7.81653100e-03 6.93785300e-02
  1000022 -1    0    0    0    0 +0.0000000000e+00 +0.0000000000e+00 +4.4721471353e+01 1.0000100000e+04 1.0000000000e+04 0.0000e+00 -1.0000e+00
  1000022 -1    0    0    0    0 -0.0000000000e+00 -0.0000000000e+00 -4.4721471353e+01 1.0000100000e+04 1.0000000000e+04 0.0000e+00 -1.0000e+00
      -24  1    1    2    0    0 +3.3152485563e+03 -8.7989183238e+03 -3.0204233351e+03 9.8762931535e+03 7.9829010000e+01 0.0000e+00 -1.0000e+00
       24  1    1    2    0    0 -2.2575543774e+03 +6.0676138912e+03 +2.4512006965e+03 6.9229507889e+03 7.9829010000e+01 0.0000e+00 -1.0000e+00
       22  1    1    2    0    0 -1.0911670374e+03 +2.8278313897e+03 +6.0844905219e+02 3.0915184168e+03 0.0000000000e+00 0.0000e+00 -1.0000e+00
       22  1    1    2    0    0 +3.3472858548e+01 -9.6526957148e+01 -3.9226413574e+01 1.0943764086e+02 0.0000000000e+00 0.0000e+00 1.0000e+00
</event>
<event>
 6      1 +1.4834189e-01 1.00342700e+04 7.81653100e-03 6.93666000e-02
  1000022 -1    0    0    0    0 +0.0000000000e+00 +0.0000000000e+00 +4.4721471353e+01 1.0000100000e+04 1.0000000000e+04 0.0000e+00 -1.0000e+00
  1000022 -1    0    0    0    0 -0.0000000000e+00 -0.0000000000e+00 -4.4721471353e+01 1.0000100000e+04 1.0000000000e+04 0.0000e+00 -1.0000e+00
      -24  1    1    2    0    0 +8.0965451512e+03 +2.1393546660e+03 -4.5030019197e+03 9.5086424232e+03 7.9829010000e+01 0.0000e+00 1.0000e+00
       24  1    1    2    0    0 -8.3760438877e+03 -2.1299763533e+03 +4.9374188358e+03 9.9538629639e+03 7.9829010000e+01 0.0000e+00 1.0000e+00
       22  1    1    2    0    0 +2.9049077460e+02 -1.2969614633e+01 -4.3786973128e+02 5.2562629557e+02 0.0000000000e+00 0.0000e+00 -1.0000e+00
       22  1    1    2    0    0 -1.0992038064e+01 +3.5913018666e+00 +3.4528152100e+00 1.2068317313e+01 0.0000000000e+00 0.0000e+00 -1.0000e+00
</event>
<event>
 6      1 +1.4834189e-01 1.07106800e+04 7.81653100e-03 6.89751800e-02
  1000022 -1    0    0    0    0 +0.0000000000e+00 +0.0000000000e+00 +4.4721471353e+01 1.0000100000e+04 1.0000000000e+04 0.0000e+00 -1.0000e+00
  1000022 -1    0    0    0    0 -0.0000000000e+00 -0.0000000000e+00 -4.4721471353e+01 1.0000100000e+04 1.0000000000e+04 0.0000e+00 -1.0000e+00
      -24  1    1    2    0    0 +7.5987118173e+03 -1.7592892455e+03 +3.5776100876e+03 8.5814443155e+03 7.9829010000e+01 0.0000e+00 -1.0000e+00
       24  1    1    2    0    0 -1.6003735721e+02 +3.2881086249e+01 -1.6514295444e+02 2.4563792007e+02 7.9829010000e+01 0.0000e+00 0.0000e+00
       22  1    1    2    0    0 -5.4700121079e+02 -5.5295622669e+02 +1.9820850830e+03 2.1292327701e+03 0.0000000000e+00 0.0000e+00 -1.0000e+00
       22  1    1    2    0    0 -6.8916732493e+03 +2.2793643859e+03 -5.3945522161e+03 9.0438849943e+03 0.0000000000e+00 0.0000e+00 -1.0000e+00
</event>
<event>
 6      1 +1.4834189e-01 1.05038000e+04 7.81653100e-03 6.90917400e-02
  1000022 -1    0    0    0    0 +0.0000000000e+00 +0.0000000000e+00 +4.4721471353e+01 1.0000100000e+04 1.0000000000e+04 0.0000e+00 -1.0000e+00
  1000022 -1    0    0    0    0 -0.0000000000e+00 -0.0000000000e+00 -4.4721471353e+01 1.0000100000e+04 1.0000000000e+04 0.0000e+00 -1.0000e+00
      -24  1    1    2    0    0 -3.3707552140e+03 -6.2895823822e+03 -5.0507397776e+03 8.7428360517e+03 7.9829010000e+01 0.0000e+00 -1.0000e+00
       24  1    1    2    0    0 +4.8842271116e+03 +5.7276518955e+03 +5.5085977023e+03 9.3280593925e+03 7.9829010000e+01 0.0000e+00 -1.0000e+00
       22  1    1    2    0    0 -1.6120016147e+03 +4.5539549213e+02 -5.4318856696e+02 1.7609622595e+03 0.0000000000e+00 0.0000e+00 1.0000e+00
       22  1    1    2    0    0 +9.8529717070e+01 +1.0653499459e+02 +8.5330642290e+01 1.6834229632e+02 0.0000000000e+00 0.0000e+00 -1.0000e+00
</event>
<event>
 6      1 +1.4834189e-01 1.00006000e+04 7.81653100e-03 6.93868900e-02
  1000022 -1    0    0    0    0 +0.0000000000e+00 +0.0000000000e+00 +4.4721471353e+01 1.0000100000e+04 1.0000000000e+04 0.0000e+00 1.0000e+00
  1000022 -1    0    0    0    0 -0.0000000000e+00 -0.0000000000e+00 -4.4721471353e+01 1.0000100000e+04 1.0000000000e+04 0.0000e+00 1.0000e+00
      -24  1    1    2    0    0 +7.9491117321e+03 +2.1976282037e+03 -2.8743992520e+03 8.7342138044e+03 7.9829010000e+01 0.0000e+00 1.0000e+00
       24  1    1    2    0    0 -9.1003436193e+03 -2.4867148470e+03 +3.2807148747e+03 9.9884667232e+03 7.9829010000e+01 0.0000e+00 1.0000e+00
       22  1    1    2    0    0 +1.1631524543e+03 +2.8706664874e+02 -4.0728531163e+02 1.2653901445e+03 0.0000000000e+00 0.0000e+00 -1.0000e+00
       22  1    1    2    0    0 -1.1920567057e+01 +2.0199945401e+00 +9.6968889285e-01 1.2129327823e+01 0.0000000000e+00 0.0000e+00 -1.0000e+00
</event>
<event>
 6      1 +1.4834189e-01 1.00023500e+04 7.81653100e-03 6.93858300e-02
  1000022 -1    0    0    0    0 +0.0000000000e+00 +0.0000000000e+00 +4.4721471353e+01 1.0000100000e+04 1.0000000000e+04 0.0000e+00 1.0000e+00
  1000022 -1    0    0    0    0 -0.0000000000e+00 -0.0000000000e+00 -4.4721471353e+01 1.0000100000e+04 1.0000000000e+04 0.0000e+00 1.0000e+00
      -24  1    1    2    0    0 +4.1933185140e+03 +5.0343578592e+03 +7.4920526412e+03 9.9531856541e+03 7.9829010000e+01 0.0000e+00 1.0000e+00
       24  1    1    2    0    0 -3.6502592764e+03 -4.4563797115e+03 -6.7114828097e+03 8.8450035101e+03 7.9829010000e+01 0.0000e+00 1.0000e+00
       22  1    1    2    0    0 -5.6258957239e+02 -6.0089673424e+02 -8.1355502690e+02 1.1573485620e+03 0.0000000000e+00 0.0000e+00 -1.0000e+00
       22  1    1    2    0    0 +1.9530334778e+01 +2.2918586525e+01 +3.2985195417e+01 4.4662273806e+01 0.0000000000e+00 0.0000e+00 -1.0000e+00
</event>
<event>
 6      1 +1.4834189e-01 1.00020300e+04 7.81653100e-03 6.93860300e-02
  1000022 -1    0    0    0    0 +0.0000000000e+00 +0.0000000000e+00 +4.4721471353e+01 1.0000100000e+04 1.0000000000e+04 0.0000e+00 1.0000e+00
  1000022 -1    0    0    0    0 -0.0000000000e+00 -0.0000000000e+00 -4.4721471353e+01 1.0000100000e+04 1.0000000000e+04 0.0000e+00 1.0000e+00
      -24  1    1    2    0    0 -4.8153721158e+03 -5.4134220108e+03 -6.8394352095e+03 9.9637941135e+03 7.9829010000e+01 0.0000e+00 1.0000e+00
       24  1    1    2    0    0 +4.7631379607e+03 +5.3587755317e+03 +6.8166657512e+03 9.8932938431e+03 7.9829010000e+01 0.0000e+00 1.0000e+00
       22  1    1    2    0    0 +4.4907645619e+01 +8.0579728561e+01 +4.9893569654e+01 1.0487686867e+02 0.0000000000e+00 0.0000e+00 -1.0000e+00
       22  1    1    2    0    0 +7.3265095014e+00 -2.5933249474e+01 -2.7124111323e+01 3.8235174707e+01 0.0000000000e+00 0.0000e+00 1.0000e+00
</event>
<event>
 6      1 +1.4834189e-01 1.03372800e+04 7.81653100e-03 6.91875400e-02
  1000022 -1    0    0    0    0 +0.0000000000e+00 +0.0000000000e+00 +4.4721471353e+01 1.0000100000e+04 1.0000000000e+04 0.0000e+00 1.0000e+00
  1000022 -1    0    0    0    0 -0.0000000000e+00 -0.0000000000e+00 -4.4721471353e+01 1.0000100000e+04 1.0000000000e+04 0.0000e+00 1.0000e+00
      -24  1    1    2    0    0 -8.4689249567e+03 +4.2562181805e+03 +1.8781928633e+03 9.6629221370e+03 7.9829010000e+01 0.0000e+00 -1.0000e+00
       24  1    1    2    0    0 +8.4150086909e+03 -3.8358027520e+03 -2.4186347254e+03 9.5593891346e+03 7.9829010000e+01 0.0000e+00 -1.0000e+00
       22  1    1    2    0    0 +8.7248285136e+01 -3.9977649073e+01 -2.1605696605e+01 9.8373176275e+01 0.0000000000e+00 0.0000e+00 1.0000e+00
       22  1    1    2    0    0 -3.3332019352e+01 -3.8043777935e+02 +5.6204755864e+02 6.7951555217e+02 0.0000000000e+00 0.0000e+00 1.0000e+00
</event>
<event>
 6      1 +1.4834189e-01 1.00002100e+04 7.81653100e-03 6.93871300e-02
  1000022 -1    0    0    0    0 +0.0000000000e+00 +0.0000000000e+00 +4.4721471353e+01 1.0000100000e+04 1.0000000000e+04 0.0000e+00 -1.0000e+00
  1000022 -1    0    0    0    0 -0.0000000000e+00 -0.0000000000e+00 -4.4721471353e+01 1.0000100000e+04 1.0000000000e+04 0.0000e+00 -1.0000e+00
      -24  1    1    2    0    0 +5.6577458856e+03 +1.9437025880e+03 +7.8895964267e+03 9.9015237567e+03 7.9829010000e+01 0.0000e+00 -1.0000e+00
       24  1    1    2    0    0 -5.6708553528e+03 -1.9489537860e+03 -7.9218757649e+03 9.9357692001e+03 7.9829010000e+01 0.0000e+00 -1.0000e+00
       22  1    1    2    0    0 -3.7741581256e+01 -1.3125483639e+01 -5.0275847167e+01 6.4221227681e+01 0.0000000000e+00 0.0000e+00 -1.0000e+00
       22  1    1    2    0    0 +5.0851048449e+01 +1.8376681637e+01 +8.2555185374e+01 9.8685815538e+01 0.0000000000e+00 0.0000e+00 -1.0000e+00
</event>
<event>
 6      1 +1.4834189e-01 9.79319700e+03 7.81653100e-03 6.95136700e-02
  1000022 -1    0    0    0    0 +0.0000000000e+00 +0.0000000000e+00 +4.4721471353e+01 1.0000100000e+04 1.0000000000e+04 0.0000e+00 1.0000e+00
  1000022 -1    0    0    0    0 -0.0000000000e+00 -0.0000000000e+00 -4.4721471353e+01 1.0000100000e+04 1.0000000000e+04 0.0000e+00 1.0000e+00
      -24  1    1    2    0    0 -1.8449000400e+02 +4.0252327460e+02 -9.8198531382e+01 4.6051837160e+02 7.9829010000e+01 0.0000e+00 1.0000e+00
       24  1    1    2    0    0 +6.4696994109e+01 +1.1014020045e+02 +1.6132716146e+00 1.5063810369e+02 7.9829010000e+01 0.0000e+00 -1.0000e+00
       22  1    1    2    0    0 -8.5501126132e+03 -4.0516511131e+03 +2.3675310855e+03 9.7532305357e+03 0.0000000000e+00 0.0000e+00 1.0000e+00
       22  1    1    2    0    0 +8.6699056231e+03 +3.5389876380e+03 -2.2709458258e+03 9.6358129890e+03 0.0000000000e+00 0.0000e+00 1.0000e+00
</event>
<event>
 6      1 +1.4834189e-01 1.02747000e+04 7.81653100e-03 6.92240100e-02
  1000022 -1    0    0    0    0 +0.0000000000e+00 +0.0000000000e+00 +4.4721471353e+01 1.0000100000e+04 1.0000000000e+04 0.0000e+00 1.0000e+00
  1000022 -1    0    0    0    0 -0.0000000000e+00 -0.0000000000e+00 -4.4721471353e+01 1.0000100000e+04 1.0000000000e+04 0.0000e+00 1.0000e+00
      -24  1    1    2    0    0 -5.2186002433e+03 +5.0504093929e+02 +8.1908595493e+03 9.7255029524e+03 7.9829010000e+01 0.0000e+00 -1.0000e+00
       24  1    1    2    0    0 +1.0483600267e+03 -9.2664617010e+02 -8.2702351623e+02 1.6272899058e+03 7.9829010000e+01 0.0000e+00 -1.0000e+00
       22  1    1    2    0    0 +2.3963415629e+03 -6.0343399580e+02 -4.3555907017e+03 5.0077695468e+03 0.0000000000e+00 0.0000e+00 -1.0000e+00
       22  1    1    2    0    0 +1.7738986537e+03 +1.0250392266e+03 -3.0082453314e+03 3.6396375951e+03 0.0000000000e+00 0.0000e+00 -1.0000e+00
</event>
<event>
 6      1 +1.4834189e-01 1.00002100e+04 7.81653100e-03 6.93871300e-02
  1000022 -1    0    0    0    0 +0.0000000000e+00 +0.0000000000e+00 +4.4721471353e+01 1.0000100000e+04 1.0000000000e+04 0.0000e+00 -1.0000e+00
  1000022 -1    0    0    0    0 -0.0000000000e+00 -0.0000000000e+00 -4.4721471353e+01 1.0000100000e+04 1.0000000000e+04 0.0000e+00 -1.0000e+00
      -24  1    1    2    0    0 +9.1140587328e+03 -1.1083808520e+02 -3.1942073975e+03 9.6585550283e+03 7.9829010000e+01 0.0000e+00 1.0000e+00
       24  1    1    2    0    0 -9.4312183721e+03 +1.1602316802e+02 +3.2843393893e+03 9.9877224257e+03 7.9829010000e+01 0.0000e+00 1.0000e+00
       22  1    1    2    0    0 +3.2849776291e+02 -8.9639445343e-01 -9.3110586622e+01 3.4143984112e+02 0.0000000000e+00 0.0000e+00 1.0000e+00
       22  1    1    2    0    0 -1.1338123603e+01 -4.2886883709e+00 +2.9785948548e+00 1.2482704919e+01 0.0000000000e+00 0.0000e+00 -1.0000e+00
</event>
<event>
 6      1 +1.4834189e-01 1.01078900e+04 7.81653100e-03 6.93225200e-02
  1000022 -1    0    0    0    0 +0.0000000000e+00 +0.0000000000e+00 +4.4721471353e+01 1.0000100000e+04 1.0000000000e+04 0.0000e+00 -1.0000e+00
  1000022 -1    0    0    0    0 -0.0000000000e+00 -0.0000000000e+00 -4.4721471353e+01 1.0000100000e+04 1.0000000000e+04 0.0000e+00 -1.0000e+00
      -24  1    1    2    0    0 -5.4653373007e+01 +1.3557890847e+02 -5.7628485513e+02 5.9987126677e+02 7.9829010000e+01 0.0000e+00 1.0000e+00
       24  1    1    2    0    0 +6.8100372798e+02 -8.2473212456e+03 +4.2770489058e+03 9.3156638958e+03 7.9829010000e+01 0.0000e+00 -1.0000e+00
       22  1    1    2    0    0 -7.5503446871e+02 +8.6172801156e+03 -3.9465044978e+03 9.5080224753e+03 0.0000000000e+00 0.0000e+00 -1.0000e+00
       22  1    1    2    0    0 +1.2868411374e+02 -5.0553777841e+02 +2.4574044716e+02 5.7664236221e+02 0.0000000000e+00 0.0000e+00 -1.0000e+00
</event>
<event>
 6      1 +1.4834189e-01 1.00800400e+04 7.81653100e-03 6.93391500e-02
  1000022 -1    0    0    0    0 +0.0000000000e+00 +0.0000000000e+00 +4.4721471353e+01 1.0000100000e+04 1.0000000000e+04 0.0000e+00 -1.0000e+00
  1000022 -1    0    0    0    0 -0.0000000000e+00 -0.0000000000e+00 -4.4721471353e+01 1.0000100000e+04 1.0000000000e+04 0.0000e+00 -1.0000e+00
      -24  1    1    2    0    0 +6.7724729721e+03 -3.7929210303e+03 +6.1766073799e+03 9.9201558202e+03 7.9829010000e+01 0.0000e+00 -1.0000e+00
       24  1    1    2    0    0 -5.3454063208e+03 +3.0428527959e+03 -5.7248149644e+03 8.4031066231e+03 7.9829010000e+01 0.0000e+00 -1.0000e+00
       22  1    1    2    0    0 -1.6447314913e+01 +9.2664133073e+00 -1.6912725613e+01 2.5346022786e+01 0.0000000000e+00 0.0000e+00 -1.0000e+00
       22  1    1    2    0    0 -1.4106193363e+03 +7.4080182117e+02 -4.3487968991e+02 1.6515915339e+03 0.0000000000e+00 0.0000e+00 -1.0000e+00
</event>
<event>
 6      1 +1.4834189e-01 1.00001700e+04 7.81653100e-03 6.93871500e-02
  1000022 -1    0    0    0    0 +0.0000000000e+00 +0.0000000000e+00 +4.4721471353e+01 1.0000100000e+04 1.0000000000e+04 0.0000e+00 1.0000e+00
  1000022 -1    0    0    0    0 -0.0000000000e+00 -0.0000000000e+00 -4.4721471353e+01 1.0000100000e+04 1.0000000000e+04 0.0000e+00 1.0000e+00
      -24  1    1    2    0    0 -1.4008706398e+03 -6.2238283916e+03 +7.6603444462e+03 9.9692390935e+03 7.9829010000e+01 0.0000e+00 1.0000e+00
       24  1    1    2    0    0 +1.3990577294e+03 +6.2076198256e+03 -7.6406569688e+03 9.9437376280e+03 7.9829010000e+01 0.0000e+00 1.0000e+00
       22  1    1    2    0    0 -7.0967181603e+00 -1.7708564558e+01 +2.4347117148e+01 3.0931194299e+01 0.0000000000e+00 0.0000e+00 -1.0000e+00
       22  1    1    2    0    0 +8.9096285252e+00 +3.3917130469e+01 -4.4034594603e+01 5.6292084182e+01 0.0000000000e+00 0.0000e+00 -1.0000e+00
</event>
<event>
 6      1 +1.4834189e-01 1.00149600e+04 7.81653100e-03 6.93782300e-02
  1000022 -1    0    0    0    0 +0.0000000000e+00 +0.0000000000e+00 +4.4721471353e+01 1.0000100000e+04 1.0000000000e+04 0.0000e+00 1.0000e+00
  1000022 -1    0    0    0    0 -0.0000000000e+00 -0.0000000000e+00 -4.4721471353e+01 1.0000100000e+04 1.0000000000e+04 0.0000e+00 1.0000e+00
      -24  1    1    2    0    0 +2.8759781065e+02 +9.0421795702e+01 -4.6374166467e+02 5.5885383082e+02 7.9829010000e+01 0.0000e+00 0.0000e+00
       24  1    1    2    0    0 -7.8653288921e+02 -3.0012750244e+02 +8.2369127335e+02 1.1804873943e+03 7.9829010000e+01 0.0000e+00 -1.0000e+00
       22  1    1    2    0    0 +4.7759912936e+03 +1.8214933615e+03 -7.9201584477e+03 9.4263906528e+03 0.0000000000e+00 0.0000e+00 -1.0000e+00
       22  1    1    2    0    0 -4.2770562151e+03 -1.6117876547e+03 +7.5602088390e+03 8.8344681221e+03 0.0000000000e+00 0.0000e+00 -1.0000e+00
</event>
<event>
 6      1 +1.4834189e-01 9.88658100e+03 7.81653100e-03 6.94562000e-02
  1000022 -1    0    0    0    0 +0.0000000000e+00 +0.0000000000e+00 +4.4721471353e+01 1.0000100000e+04 1.0000000000e+04 0.0000e+00 -1.0000e+00
  1000022 -1    0    0    0    0 -0.0000000000e+00 -0.0000000000e+00 -4.4721471353e+01 1.0000100000e+04 1.0000000000e+04 0.0000e+00 -1.0000e+00
      -24  1    1    2    0    0 +1.7920074107e+01 -4.3070318890e+02 +3.6403675661e+02 5.6984366012e+02 7.9829010000e+01 0.0000e+00 -1.0000e+00
       24  1    1    2    0    0 +2.9284038736e+01 -2.0882358276e+02 -9.2663958960e+01 2.4377063763e+02 7.9829010000e+01 0.0000e+00 -1.0000e+00
       22  1    1    2    0    0 -1.9852466276e+03 +6.7844024995e+03 -6.9452892437e+03 9.9099124177e+03 0.0000000000e+00 0.0000e+00 -1.0000e+00
       22  1    1    2    0    0 +1.9380425147e+03 -6.1448757278e+03 +6.6739164461e+03 9.2766732846e+03 0.0000000000e+00 0.0000e+00 -1.0000e+00
</event>
<event>
 6      1 +1.4834189e-01 1.00161100e+04 7.81653100e-03 6.93775400e-02
  1000022 -1    0    0    0    0 +0.0000000000e+00 +0.0000000000e+00 +4.4721471353e+01 1.0000100000e+04 1.0000000000e+04 0.0000e+00 1.0000e+00
  1000022 -1    0    0    0    0 -0.0000000000e+00 -0.0000000000e+00 -4.4721471353e+01 1.0000100000e+04 1.0000000000e+04 0.0000e+00 1.0000e+00
      -24  1    1    2    0    0 +7.4100910367e+03 +3.6989648071e+03 -5.2007177738e+03 9.7798582734e+03 7.9829010000e+01 0.0000e+00 -1.0000e+00
       24  1    1    2    0    0 -7.2982414706e+03 -3.8114380393e+03 +5.2404299408e+03 9.7601161431e+03 7.9829010000e+01 0.0000e+00 -1.0000e+00
       22  1    1    2    0    0 +1.4013301004e+02 +1.2277744614e+02 -8.3660330553e+01 2.0423176220e+02 0.0000000000e+00 0.0000e+00 -1.0000e+00
       22  1    1    2    0    0 -2.5198257604e+02 -1.0304213886e+01 +4.3948163539e+01 2.5599382128e+02 0.0000000000e+00 0.0000e+00 1.0000e+00
</event>
<event>
 6      1 +1.4834189e-01 1.00511900e+04 7.81653100e-03 6.93564400e-02
  1000022 -1    0    0    0    0 +0.0000000000e+00 +0.0000000000e+00 +4.4721471353e+01 1.0000100000e+04 1.0000000000e+04 0.0000e+00 1.0000e+00
  1000022 -1    0    0    0    0 -0.0000000000e+00 -0.0000000000e+00 -4.4721471353e+01 1.0000100000e+04 1.0000000000e+04 0.0000e+00 1.0000e+00
      -24  1    1    2    0    0 +8.6376921191e+03 +9.0406752019e+02 +4.0923885720e+03 9.6010978602e+03 7.9829010000e+01 0.0000e+00 1.0000e+00
       24  1    1    2    0    0 -1.8047915628e+03 -7.4680117408e+02 +1.4802138898e+02 1.9604253572e+03 7.9829010000e+01 0.0000e+00 1.0000e+00
       22  1    1    2    0    0 +1.2632444144e+02 +2.9315614803e+02 -1.3836660271e+02 3.4791336332e+02 0.0000000000e+00 0.0000e+00 1.0000e+00
       22  1    1    2    0    0 -6.9592249978e+03 -4.5042249413e+02 -4.1020433583e+03 8.0907634193e+03 0.0000000000e+00 0.0000e+00 1.0000e+00
</event>
<event>
 6      1 +1.4834189e-01 1.00027000e+04 7.81653100e-03 6.93856200e-02
  1000022 -1    0    0    0    0 +0.0000000000e+00 +0.0000000000e+00 +4.4721471353e+01 1.0000100000e+04 1.0000000000e+04 0.0000e+00 1.0000e+00
  1000022 -1    0    0    0    0 -0.0000000000e+00 -0.0000000000e+00 -4.4721471353e+01 1.0000100000e+04 1.0000000000e+04 0.0000e+00 1.0000e+00
      -24  1    1    2    0    0 +4.3904615394e+03 +2.2070705065e+03 -8.6131900454e+03 9.9166893759e+03 7.9829010000e+01 0.0000e+00 -1.0000e+00
       24  1    1    2    0    0 -4.4348094045e+03 -2.2504596339e+03 +8.6615893944e+03 9.9880732139e+03 7.9829010000e+01 0.0000e+00 -1.0000e+00
       22  1    1    2    0    0 +1.0877241024e+01 -1.8361511470e+00 +9.6061236663e+00 1.4627489027e+01 0.0000000000e+00 0.0000e+00 -1.0000e+00
       22  1    1    2    0    0 +3.3470624172e+01 +4.5225278457e+01 -5.8005472699e+01 8.0809921155e+01 0.0000000000e+00 0.0000e+00 -1.0000e+00
</event>
<event>
 6      1 +1.4834189e-01 1.00029600e+04 7.81653100e-03 6.93854700e-02
  1000022 -1    0    0    0    0 +0.0000000000e+00 +0.0000000000e+00 +4.4721471353e+01 1.0000100000e+04 1.0000000000e+04 0.0000e+00 1.0000e+00
  1000022 -1    0    0    0    0 -0.0000000000e+00 -0.0000000000e+00 -4.4721471353e+01 1.0000100000e+04 1.0000000000e+04 0.0000e+00 1.0000e+00
      -24  1    1    2    0    0 +4.2592247972e+03 -4.6268888698e+03 -3.8912327689e+03 7.3957529447e+03 7.9829010000e+01 0.0000e+00 1.0000e+00
       24  1    1    2    0    0 -5.3846810154e+03 +5.6687436247e+03 +5.0117355702e+03 9.2872660141e+03 7.9829010000e+01 0.0000e+00 1.0000e+00
       22  1    1    2    0    0 -3.8382124348e+02 +5.1282061739e+02 +3.1922874887e+02 7.1568898739e+02 0.0000000000e+00 0.0000e+00 -1.0000e+00
       22  1    1    2    0    0 +1.5092774617e+03 -1.5546753722e+03 -1.4397315502e+03 2.6014920538e+03 0.0000000000e+00 0.0000e+00 1.0000e+00
</event>
<event>
 6      1 +1.4834189e-01 1.15821200e+04 7.81653100e-03 6.85117100e-02
  1000022 -1    0    0    0    0 +0.0000000000e+00 +0.0000000000e+00 +4.4721471353e+01 1.0000100000e+04 1.0000000000e+04 0.0000e+00 1.0000e+00
  1000022 -1    0    0    0    0 -0.0000000000e+00 -0.0000000000e+00 -4.4721471353e+01 1.0000100000e+04 1.0000000000e+04 0.0000e+00 1.0000e+00
      -24  1    1    2    0    0 -6.5867746559e+01 +3.9845793091e+03 +6.6639088595e+03 7.7650025621e+03 7.9829010000e+01 0.0000e+00 -1.0000e+00
       24  1    1    2    0    0 -3.2462937136e+03 -4.7488332777e+03 -6.1455581875e+03 8.4180816390e+03 7.9829010000e+01 0.0000e+00 -1.0000e+00
       22  1    1    2    0    0 -1.0597851859e+02 +8.0032903040e+01 +2.1703642064e+02 2.5444354945e+02 0.0000000000e+00 0.0000e+00 1.0000e+00
       22  1    1    2    0    0 +3.4181399788e+03 +6.8422106558e+02 -7.3538709263e+02 3.5626722495e+03 0.0000000000e+00 0.0000e+00 -1.0000e+00
</event>
<event>
 6      1 +1.4834189e-01 1.14284600e+04 7.81653100e-03 6.85903900e-02
  1000022 -1    0    0    0    0 +0.0000000000e+00 +0.0000000000e+00 +4.4721471353e+01 1.0000100000e+04 1.0000000000e+04 0.0000e+00 -1.0000e+00
  1000022 -1    0    0    0    0 -0.0000000000e+00 -0.0000000000e+00 -4.4721471353e+01 1.0000100000e+04 1.0000000000e+04 0.0000e+00 -1.0000e+00
      -24  1    1    2    0    0 -1.6805640990e+03 -1.4033399345e+03 -8.2253935075e+03 8.5121753792e+03 7.9829010000e+01 0.0000e+00 -1.0000e+00
       24  1    1    2    0    0 +2.1282909526e+02 -1.1356417209e+03 +8.4021778897e+03 8.4816239190e+03 7.9829010000e+01 0.0000e+00 -1.0000e+00
       22  1    1    2    0    0 +1.4794586781e+03 +2.5457718599e+03 -1.1878433828e+02 2.9468393342e+03 0.0000000000e+00 0.0000e+00 -1.0000e+00
       22  1    1    2    0    0 -1.1723674369e+01 -6.7902044341e+00 -5.8000043942e+01 5.9561367632e+01 0.0000000000e+00 0.0000e+00 1.0000e+00
</event>
<event>
 6      1 +1.4834189e-01 6.32789400e+03 7.81653100e-03 7.22667600e-02
  1000022 -1    0    0    0    0 +0.0000000000e+00 +0.0000000000e+00 +4.4721471353e+01 1.0000100000e+04 1.0000000000e+04 0.0000e+00 1.0000e+00
  1000022 -1    0    0    0    0 -0.0000000000e+00 -0.0000000000e+00 -4.4721471353e+01 1.0000100000e+04 1.0000000000e+04 0.0000e+00 1.0000e+00
      -24  1    1    2    0    0 +3.8425532968e+02 +5.4581880473e+03 +2.5521374877e+03 6.0381493311e+03 7.9829010000e+01 0.0000e+00 -1.0000e+00
       24  1    1    2    0    0 +2.1036024030e+03 -2.4618996425e+03 +3.9681302799e+02 3.2634224626e+03 7.9829010000e+01 0.0000e+00 -1.0000e+00
       22  1    1    2    0    0 -4.7831264650e+03 +1.9845773369e+02 -4.4035408804e+03 6.5045258503e+03 0.0000000000e+00 0.0000e+00 -1.0000e+00
       22  1    1    2    0    0 +2.2952687324e+03 -3.1947461385e+03 +1.4545903647e+03 4.1941023560e+03 0.0000000000e+00 0.0000e+00 -1.0000e+00
</event>
<event>
 6      1 +1.4834189e-01 1.00080200e+04 7.81653100e-03 6.93824200e-02
  1000022 -1    0    0    0    0 +0.0000000000e+00 +0.0000000000e+00 +4.4721471353e+01 1.0000100000e+04 1.0000000000e+04 0.0000e+00 1.0000e+00
  1000022 -1    0    0    0    0 -0.0000000000e+00 -0.0000000000e+00 -4.4721471353e+01 1.0000100000e+04 1.0000000000e+04 0.0000e+00 1.0000e+00
      -24  1    1    2    0    0 -2.9473517692e+03 +5.1374007105e+03 +7.4363034902e+03 9.5070895010e+03 7.9829010000e+01 0.0000e+00 -1.0000e+00
       24  1    1    2    0    0 +3.0687062724e+03 -5.4026491980e+03 -7.8250747399e+03 9.9921841405e+03 7.9829010000e+01 0.0000e+00 -1.0000e+00
       22  1    1    2    0    0 -1.5698976037e+01 +1.2414060065e+02 +9.0385822990e+01 1.5435978614e+02 0.0000000000e+00 0.0000e+00 -1.0000e+00
       22  1    1    2    0    0 -1.0565552707e+02 +1.4110788687e+02 +2.9838542675e+02 3.4656657230e+02 0.0000000000e+00 0.0000e+00 -1.0000e+00
</event>
<event>
 6      1 +1.4834189e-01 1.00545700e+04 7.81653100e-03 6.93544100e-02
  1000022 -1    0    0    0    0 +0.0000000000e+00 +0.0000000000e+00 +4.4721471353e+01 1.0000100000e+04 1.0000000000e+04 0.0000e+00 -1.0000e+00
  1000022 -1    0    0    0    0 -0.0000000000e+00 -0.0000000000e+00 -4.4721471353e+01 1.0000100000e+04 1.0000000000e+04 0.0000e+00 -1.0000e+00
      -24  1    1    2    0    0 -9.5801077048e+03 -1.7956241543e+03 +1.9764840156e+03 9.9456317785e+03 7.9829010000e+01 0.0000e+00 -1.0000e+00
       24  1    1    2    0    0 +8.8353127211e+03 +1.7613081899e+03 -2.1691259938e+03 9.2669540664e+03 7.9829010000e+01 0.0000e+00 -1.0000e+00
       22  1    1    2    0    0 +2.8641670972e+01 +2.2134937937e+01 +4.2435140303e+01 5.5776714910e+01 0.0000000000e+00 0.0000e+00 -1.0000e+00
       22  1    1    2    0    0 +7.1615331269e+02 +1.2181026466e+01 +1.5020683791e+02 7.3183744017e+02 0.0000000000e+00 0.0000e+00 -1.0000e+00
</event>
<event>
 6      1 +1.4834189e-01 1.00388000e+04 7.81653100e-03 6.93638800e-02
  1000022 -1    0    0    0    0 +0.0000000000e+00 +0.0000000000e+00 +4.4721471353e+01 1.0000100000e+04 1.0000000000e+04 0.0000e+00 -1.0000e+00
  1000022 -1    0    0    0    0 -0.0000000000e+00 -0.0000000000e+00 -4.4721471353e+01 1.0000100000e+04 1.0000000000e+04 0.0000e+00 -1.0000e+00
      -24  1    1    2    0    0 -7.0788658861e+03 -6.6512264315e+03 -8.0633095060e+02 9.7470866185e+03 7.9829010000e+01 0.0000e+00 -1.0000e+00
       24  1    1    2    0    0 +7.3386497244e+03 +6.6726144139e+03 +9.1847240366e+02 9.9614018653e+03 7.9829010000e+01 0.0000e+00 -1.0000e+00
       22  1    1    2    0    0 -2.4492604982e+02 -5.1139616599e+00 -1.1271965266e+02 2.6966765209e+02 0.0000000000e+00 0.0000e+00 -1.0000e+00
       22  1    1    2    0    0 -1.4857788472e+01 -1.6274020759e+01 +5.7819961146e-01 2.2043864106e+01 0.0000000000e+00 0.0000e+00 -1.0000e+00
</event>
<event>
 6      1 +1.4834189e-01 6.63576300e+03 7.81653100e-03 7.19566000e-02
  1000022 -1    0    0    0    0 +0.0000000000e+00 +0.0000000000e+00 +4.4721471353e+01 1.0000100000e+04 1.0000000000e+04 0.0000e+00 1.0000e+00
  1000022 -1    0    0    0    0 -0.0000000000e+00 -0.0000000000e+00 -4.4721471353e+01 1.0000100000e+04 1.0000000000e+04 0.0000e+00 1.0000e+00
      -24  1    1    2    0    0 +5.5314101229e+03 +6.0160290452e+03 -3.6367575387e+03 8.9454726810e+03 7.9829010000e+01 0.0000e+00 1.0000e+00
       24  1    1    2    0    0 -5.2850882089e+03 -1.8278380125e+03 +2.2411263249e+02 5.5972983053e+03 7.9829010000e+01 0.0000e+00 1.0000e+00
       22  1    1    2    0    0 +1.6438030764e+01 +1.8112326120e+01 -1.1713446348e+01 2.7119550849e+01 0.0000000000e+00 0.0000e+00 -1.0000e+00
       22  1    1    2    0    0 -2.6275994472e+02 -4.2063033589e+03 +3.4243583526e+03 5.4303094628e+03 0.0000000000e+00 0.0000e+00 1.0000e+00
</event>
<event>
 6      1 +1.4834189e-01 1.00101200e+04 7.81653100e-03 6.93811500e-02
  1000022 -1    0    0    0    0 +0.0000000000e+00 +0.0000000000e+00 +4.4721471353e+01 1.0000100000e+04 1.0000000000e+04 0.0000e+00 1.0000e+00
  1000022 -1    0    0    0    0 -0.0000000000e+00 -0.0000000000e+00 -4.4721471353e+01 1.0000100000e+04 1.0000000000e+04 0.0000e+00 1.0000e+00
      -24  1    1    2    0    0 -8.9125385246e+03 +3.4535064251e+03 -1.1954243012e+03 9.6330400971e+03 7.9829010000e+01 0.0000e+00 -1.0000e+00
       24  1    1    2    0    0 +8.1024164003e+03 -3.0459894598e+03 +1.0185763988e+03 8.7161387016e+03 7.9829010000e+01 0.0000e+00 -1.0000e+00
       22  1    1    2    0    0 -3.7607498210e+02 +2.5885953311e+01 +9.4714811781e+00 3.7708378870e+02 0.0000000000e+00 0.0000e+00 -1.0000e+00
       22  1    1    2    0    0 +1.1861971064e+03 -4.3340291854e+02 +1.6737642117e+02 1.2739374127e+03 0.0000000000e+00 0.0000e+00 1.0000e+00
</event>
<event>
 6      1 +1.4834189e-01 1.01040100e+04 7.81653100e-03 6.93248300e-02
  1000022 -1    0    0    0    0 +0.0000000000e+00 +0.0000000000e+00 +4.4721471353e+01 1.0000100000e+04 1.0000000000e+04 0.0000e+00 1.0000e+00
  1000022 -1    0    0    0    0 -0.0000000000e+00 -0.0000000000e+00 -4.4721471353e+01 1.0000100000e+04 1.0000000000e+04 0.0000e+00 1.0000e+00
      -24  1    1    2    0    0 -2.6054444806e+03 +7.7072332739e+02 -2.4898707241e+03 3.6862154417e+03 7.9829010000e+01 0.0000e+00 1.0000e+00
       24  1    1    2    0    0 +4.6078325233e+03 -4.2350887848e+03 +3.6435090903e+03 7.2422115917e+03 7.9829010000e+01 0.0000e+00 1.0000e+00
       22  1    1    2    0    0 +2.2040386296e+03 -7.2131106979e+02 +1.2905618378e+03 2.6539830062e+03 0.0000000000e+00 0.0000e+00 1.0000e+00
       22  1    1    2    0    0 -4.2064266722e+03 +4.1856765272e+03 -2.4442002039e+03 6.4177899604e+03 0.0000000000e+00 0.0000e+00 1.0000e+00
</event>
<event>
 6      1 +1.4834189e-01 1.00011100e+04 7.81653100e-03 6.93865800e-02
  1000022 -1    0    0    0    0 +0.0000000000e+00 +0.0000000000e+00 +4.4721471353e+01 1.0000100000e+04 1.0000000000e+04 0.0000e+00 1.0000e+00
  1000022 -1    0    0    0    0 -0.0000000000e+00 -0.0000000000e+00 -4.4721471353e+01 1.0000100000e+04 1.0000000000e+04 0.0000e+00 1.0000e+00
      -24  1    1    2    0    0 +1.0801550312e+03 +3.8922795263e+03 -9.0902688237e+03 9.9476597630e+03 7.9829010000e+01 0.0000e+00 -1.0000e+00
       24  1    1    2    0    0 -1.0735738184e+03 -3.9198780954e+03 +9.0894111041e+03 9.9569961292e+03 7.9829010000e+01 0.0000e+00 -1.0000e+00
       22  1    1    2    0    0 +6.8967039134e+00 +3.7088559328e+01 -3.7870582574e+01 5.3453781741e+01 0.0000000000e+00 0.0000e+00 1.0000e+00
       22  1    1    2    0    0 -1.3477916630e+01 -9.4899902631e+00 +3.8728302186e+01 4.2090325992e+01 0.0000000000e+00 0.0000e+00 -1.0000e+00
</event>
<event>
 6      1 +1.4834189e-01 1.00558000e+04 7.81653100e-03 6.93536700e-02
  1000022 -1    0    0    0    0 +0.0000000000e+00 +0.0000000000e+00 +4.4721471353e+01 1.0000100000e+04 1.0000000000e+04 0.0000e+00 -1.0000e+00
  1000022 -1    0    0    0    0 -0.0000000000e+00 -0.0000000000e+00 -4.4721471353e+01 1.0000100000e+04 1.0000000000e+04 0.0000e+00 -1.0000e+00
      -24  1    1    2    0    0 -1.1116729345e+02 -1.5049409322e+03 +1.0009195289e+03 1.8125721919e+03 7.9829010000e+01 0.0000e+00 -1.0000e+00
       24  1    1    2    0    0 +3.5897573729e+03 +7.8389628489e+03 -3.5682811246e+03 9.3313825019e+03 7.9829010000e+01 0.0000e+00 -1.0000e+00
       22  1    1    2    0    0 +2.5473771375e+02 +3.9057297072e+02 -3.9792917708e+02 6.1301401145e+02 0.0000000000e+00 0.0000e+00 -1.0000e+00
       22  1    1    2    0    0 -3.7333277932e+03 -6.7245948875e+03 +2.9652907728e+03 8.2432312947e+03 0.0000000000e+00 0.0000e+00 -1.0000e+00
</event>
<event>
 6      1 +1.4834189e-01 1.00038800e+04 7.81653100e-03 6.93849100e-02
  1000022 -1    0    0    0    0 +0.0000000000e+00 +0.0000000000e+00 +4.4721471353e+01 1.0000100000e+04 1.0000000000e+04 0.0000e+00 1.0000e+00
  1000022 -1    0    0    0    0 -0.0000000000e+00 -0.0000000000e+00 -4.4721471353e+01 1.0000100000e+04 1.0000000000e+04 0.0000e+00 1.0000e+00
      -24  1    1    2    0    0 +4.9953577771e+03 +9.1160567663e+02 +4.5558598154e+03 6.8225255998e+03 7.9829010000e+01 0.0000e+00 1.0000e+00
       24  1    1    2    0    0 -2.8126043770e+03 -5.4843507093e+02 -2.4227547780e+03 3.7533502093e+03 7.9829010000e+01 0.0000e+00 0.0000e+00
       22  1    1    2    0    0 +2.3785562926e+03 +6.8517092625e+02 +1.9984995838e+03 3.1813503142e+03 0.0000000000e+00 0.0000e+00 -1.0000e+00
       22  1    1    2    0    0 -4.5613096927e+03 -1.0483415319e+03 -4.1316046212e+03 6.2429738768e+03 0.0000000000e+00 0.0000e+00 1.0000e+00
</event>
<event>
 6      1 +1.4834189e-01 1.02443900e+04 7.81653100e-03 6.92417700e-02
  1000022 -1    0    0    0    0 +0.0000000000e+00 +0.0000000000e+00 +4.4721471353e+01 1.0000100000e+04 1.0000000000e+04 0.0000e+00 -1.0000e+00
  1000022 -1    0    0    0    0 -0.0000000000e+00 -0.0000000000e+00 -4.4721471353e+01 1.0000100000e+04 1.0000000000e+04 0.0000e+00 -1.0000e+00
      -24  1    1    2    0    0 +2.8336434504e+03 -8.8749692831e+03 -2.8939447313e+03 9.7558138440e+03 7.9829010000e+01 0.0000e+00 -1.0000e+00
       24  1    1    2    0    0 -1.7724897491e+03 +6.1105331746e+03 +4.3472408548e+02 6.3777498610e+03 7.9829010000e+01 0.0000e+00 -1.0000e+00
       22  1    1    2    0    0 -4.0967784452e+00 +4.0205403403e+01 -9.2250559649e+00 4.1453102586e+01 0.0000000000e+00 0.0000e+00 1.0000e+00
       22  1    1    2    0    0 -1.0570569229e+03 +2.7242307051e+03 +2.4684457018e+03 3.8251831924e+03 0.0000000000e+00 0.0000e+00 -1.0000e+00
</event>
<event>
 6      1 +1.4834189e-01 1.04262100e+04 7.81653100e-03 6.91361500e-02
  1000022 -1    0    0    0    0 +0.0000000000e+00 +0.0000000000e+00 +4.4721471353e+01 1.0000100000e+04 1.0000000000e+04 0.0000e+00 1.0000e+00
  1000022 -1    0    0    0    0 -0.0000000000e+00 -0.0000000000e+00 -4.4721471353e+01 1.0000100000e+04 1.0000000000e+04 0.0000e+00 1.0000e+00
      -24  1    1    2    0    0 -6.7563053619e+03 +3.3735933445e+03 -4.5294180476e+03 8.8062929044e+03 7.9829010000e+01 0.0000e+00 1.0000e+00
       24  1    1    2    0    0 +6.0763170563e+03 -3.6293821133e+03 +5.1577368253e+03 8.7580057846e+03 7.9829010000e+01 0.0000e+00 1.0000e+00
       22  1    1    2    0    0 +1.2473868108e+03 +7.3103290688e+02 -8.3218069792e+02 1.6682049277e+03 0.0000000000e+00 0.0000e+00 -1.0000e+00
       22  1    1    2    0    0 -5.6739850515e+02 -4.7524413805e+02 +2.0386192021e+02 7.6769638329e+02 0.0000000000e+00 0.0000e+00 -1.0000e+00
</event>
<event>
 6      1 +1.4834189e-01 1.01725200e+04 7.81653100e-03 6.92841200e-02
  1000022 -1    0    0    0    0 +0.0000000000e+00 +0.0000000000e+00 +4.4721471353e+01 1.0000100000e+04 1.0000000000e+04 0.0000e+00 1.0000e+00
  1000022 -1    0    0    0    0 -0.0000000000e+00 -0.0000000000e+00 -4.4721471353e+01 1.0000100000e+04 1.0000000000e+04 0.0000e+00 1.0000e+00
      -24  1    1    2    0    0 +8.6084280337e+03 -4.6128085514e+03 -1.7714240138e+02 9.7683564659e+03 7.9829010000e+01 0.0000e+00 -1.0000e+00
       24  1    1    2    0    0 -5.2392527839e+03 +4.3027744264e+03 +2.1278101573e+02 6.7834567832e+03 7.9829010000e+01 0.0000e+00 -1.0000e+00
       22  1    1    2    0    0 -3.3732709755e+03 +3.2612535180e+02 +2.1310820407e+01 3.3890660912e+03 0.0000000000e+00 0.0000e+00 -1.0000e+00
       22  1    1    2    0    0 +4.0957256869e+00 -1.6091226822e+01 -5.6949434751e+01 5.9320659706e+01 0.0000000000e+00 0.0000e+00 -1.0000e+00
</event>
<event>
 6      1 +1.4834189e-01 1.00199700e+04 7.81653100e-03 6.93752100e-02
  1000022 -1    0    0    0    0 +0.0000000000e+00 +0.0000000000e+00 +4.4721471353e+01 1.0000100000e+04 1.0000000000e+04 0.0000e+00 1.0000e+00
  1000022 -1    0    0    0    0 -0.0000000000e+00 -0.0000000000e+00 -4.4721471353e+01 1.0000100000e+04 1.0000000000e+04 0.0000e+00 1.0000e+00
      -24  1    1    2    0    0 +1.3830121401e+03 -9.9485431900e+02 -9.8262477761e+03 9.9731627744e+03 7.9829010000e+01 0.0000e+00 -1.0000e+00
       24  1    1    2    0    0 -9.1311287444e+01 +1.4389406808e+02 +7.9413692864e+02 8.1613074095e+02 7.9829010000e+01 0.0000e+00 0.0000e+00
       22  1    1    2    0    0 -1.2540711258e+03 +8.7862221967e+02 +9.0352644035e+03 9.1640970223e+03 0.0000000000e+00 0.0000e+00 -1.0000e+00
       22  1    1    2    0    0 -3.7629726818e+01 -2.7661968756e+01 -3.1535560022e+00 4.6809462412e+01 0.0000000000e+00 0.0000e+00 -1.0000e+00
</event>
<event>
 6      1 +1.4834189e-01 1.00387800e+04 7.81653100e-03 6.93638900e-02
  1000022 -1    0    0    0    0 +0.0000000000e+00 +0.0000000000e+00 +4.4721471353e+01 1.0000100000e+04 1.0000000000e+04 0.0000e+00 1.0000e+00
  1000022 -1    0    0    0    0 -0.0000000000e+00 -0.0000000000e+00 -4.4721471353e+01 1.0000100000e+04 1.0000000000e+04 0.0000e+00 1.0000e+00
      -24  1    1    2    0    0 +2.9295889557e+03 +3.8315203105e+03 -8.3083947364e+03 9.6072282738e+03 7.9829010000e+01 0.0000e+00 -1.0000e+00
       24  1    1    2    0    0 -2.8123890953e+03 -4.0117075011e+03 +8.6729565940e+03 9.9614194898e+03 7.9829010000e+01 0.0000e+00 -1.0000e+00
       22  1    1    2    0    0 -1.3043591082e+02 +1.5694585607e+02 -3.1774194051e+02 3.7763139347e+02 0.0000000000e+00 0.0000e+00 1.0000e+00
       22  1    1    2    0    0 +1.3236050495e+01 +2.3241334604e+01 -4.6819917156e+01 5.3920842996e+01 0.0000000000e+00 0.0000e+00 1.0000e+00
</event>
<event>
 6      1 +1.4834189e-01 1.00265000e+04 7.81653100e-03 6.93712800e-02
  1000022 -1    0    0    0    0 +0.0000000000e+00 +0.0000000000e+00 +4.4721471353e+01 1.0000100000e+04 1.0000000000e+04 0.0000e+00 -1.0000e+00
  1000022 -1    0    0    0    0 -0.0000000000e+00 -0.0000000000e+00 -4.4721471353e+01 1.0000100000e+04 1.0000000000e+04 0.0000e+00 -1.0000e+00
      -24  1    1    2    0    0 +6.0735024061e+03 +3.4693868926e+03 +6.9089550646e+03 9.8317907648e+03 7.9829010000e+01 0.0000e+00 1.0000e+00
       24  1    1    2    0    0 -1.2005901235e+02 +3.0081232576e+01 -6.1713024369e+01 1.5968786808e+02 7.9829010000e+01 0.0000e+00 -1.0000e+00
       22  1    1    2    0    0 -6.0377741063e+03 -3.5530791605e+03 -6.9480074359e+03 9.8668077415e+03 0.0000000000e+00 0.0000e+00 1.0000e+00
       22  1    1    2    0    0 +8.4330712506e+01 +5.3611035340e+01 +1.0076539566e+02 1.4191362565e+02 0.0000000000e+00 0.0000e+00 -1.0000e+00
</event>
<event>
 6      1 +1.4834189e-01 1.00185200e+04 7.81653100e-03 6.93760800e-02
  1000022 -1    0    0    0    0 +0.0000000000e+00 +0.0000000000e+00 +4.4721471353e+01 1.0000100000e+04 1.0000000000e+04 0.0000e+00 1.0000e+00
  1000022 -1    0    0    0    0 -0.0000000000e+00 -0.0000000000e+00 -4.4721471353e+01 1.0000100000e+04 1.0000000000e+04 0.0000e+00 1.0000e+00
      -24  1    1    2    0    0 +1.8454047210e+03 +8.9752688247e+02 +9.1795094102e+03 9.4064253982e+03 7.9829010000e+01 0.0000e+00 -1.0000e+00
       24  1    1    2    0    0 -1.9882508608e+03 -7.3603096167e+02 -9.6522964454e+03 9.8827163474e+03 7.9829010000e+01 0.0000e+00 -1.0000e+00
       22  1    1    2    0    0 +1.6951481483e+02 -1.5354110183e+02 +5.6775774809e+02 6.1209394942e+02 0.0000000000e+00 0.0000e+00 1.0000e+00
       22  1    1    2    0    0 -2.6668675024e+01 -7.9548189696e+00 -9.4970712859e+01 9.8964305047e+01 0.0000000000e+00 0.0000e+00 1.0000e+00
</event>
<event>
 6      1 +1.4834189e-01 1.00369500e+04 7.81653100e-03 6.93649900e-02
  1000022 -1    0    0    0    0 +0.0000000000e+00 +0.0000000000e+00 +4.4721471353e+01 1.0000100000e+04 1.0000000000e+04 0.0000e+00 -1.0000e+00
  1000022 -1    0    0    0    0 -0.0000000000e+00 -0.0000000000e+00 -4.4721471353e+01 1.0000100000e+04 1.0000000000e+04 0.0000e+00 -1.0000e+00
      -24  1    1    2    0    0 -7.0325473961e+03 +6.7034535256e+03 +1.9989033384e+03 9.9194253501e+03 7.9829010000e+01 0.0000e+00 1.0000e+00
       24  1    1    2    0    0 +7.1257309567e+03 -6.6595009330e+03 -2.0334462419e+03 9.9632459888e+03 7.9829010000e+01 0.0000e+00 1.0000e+00
       22  1    1    2    0    0 -5.0648340452e+01 -9.2769315802e+00 +3.5669077242e+01 6.2638637608e+01 0.0000000000e+00 0.0000e+00 -1.0000e+00
       22  1    1    2    0    0 -4.2535220067e+01 -3.4675661043e+01 -1.1261738015e+00 5.4890023523e+01 0.0000000000e+00 0.0000e+00 -1.0000e+00
</event>
<event>
 6      1 +1.4834189e-01 1.00520300e+04 7.81653100e-03 6.93559300e-02
  1000022 -1    0    0    0    0 +0.0000000000e+00 +0.0000000000e+00 +4.4721471353e+01 1.0000100000e+04 1.0000000000e+04 0.0000e+00 1.0000e+00
  1000022 -1    0    0    0    0 -0.0000000000e+00 -0.0000000000e+00 -4.4721471353e+01 1.0000100000e+04 1.0000000000e+04 0.0000e+00 1.0000e+00
      -24  1    1    2    0    0 -6.3653971893e+03 +4.1240657217e+03 -6.1456270642e+03 9.7622386847e+03 7.9829010000e+01 0.0000e+00 -1.0000e+00
       24  1    1    2    0    0 +6.4099682828e+03 -4.3954218422e+03 +6.1830276844e+03 9.9319499885e+03 7.9829010000e+01 0.0000e+00 -1.0000e+00
       22  1    1    2    0    0 -5.5724514351e+01 +2.8092055895e+02 -4.4264024164e+01 2.8979455787e+02 0.0000000000e+00 0.0000e+00 1.0000e+00
       22  1    1    2    0    0 +1.1153420844e+01 -9.5644385125e+00 +6.8634039032e+00 1.6216768905e+01 0.0000000000e+00 0.0000e+00 -1.0000e+00
</event>
<event>
 6      1 +1.4834189e-01 1.00128700e+04 7.81653100e-03 6.93794900e-02
  1000022 -1    0    0    0    0 +0.0000000000e+00 +0.0000000000e+00 +4.4721471353e+01 1.0000100000e+04 1.0000000000e+04 0.0000e+00 -1.0000e+00
  1000022 -1    0    0    0    0 -0.0000000000e+00 -0.0000000000e+00 -4.4721471353e+01 1.0000100000e+04 1.0000000000e+04 0.0000e+00 -1.0000e+00
      -24  1    1    2    0    0 +4.9056654734e+03 -7.7371018916e+03 +3.9764343802e+03 9.9873270933e+03 7.9829010000e+01 0.0000e+00 -1.0000e+00
       24  1    1    2    0    0 -5.5538734048e+02 +9.7095074547e+02 -5.1530252664e+02 1.2341433518e+03 7.9829010000e+01 0.0000e+00 0.0000e+00
       22  1    1    2    0    0 -4.3295039408e+03 +6.7784269461e+03 -3.4459024933e+03 8.7501954395e+03 0.0000000000e+00 0.0000e+00 -1.0000e+00
       22  1    1    2    0    0 -2.0774192094e+01 -1.2275799902e+01 -1.5229360275e+01 2.8534115280e+01 0.0000000000e+00 0.0000e+00 1.0000e+00
</event>
<event>
 6      1 +1.4834189e-01 1.00449100e+04 7.81653100e-03 6.93602100e-02
  1000022 -1    0    0    0    0 +0.0000000000e+00 +0.0000000000e+00 +4.4721471353e+01 1.0000100000e+04 1.0000000000e+04 0.0000e+00 1.0000e+00
  1000022 -1    0    0    0    0 -0.0000000000e+00 -0.0000000000e+00 -4.4721471353e+01 1.0000100000e+04 1.0000000000e+04 0.0000e+00 1.0000e+00
      -24  1    1    2    0    0 -8.8649733881e+02 +2.2799018803e+03 +9.6497485230e+03 9.9552925293e+03 7.9829010000e+01 0.0000e+00 -1.0000e+00
       24  1    1    2    0    0 +6.6079866518e+02 -1.5431528769e+03 -6.4457323523e+03 6.6612171489e+03 7.9829010000e+01 0.0000e+00 -1.0000e+00
       22  1    1    2    0    0 +9.8857331066e+01 +4.0748143058e+01 -2.6752462799e+01 1.1022194579e+02 0.0000000000e+00 0.0000e+00 1.0000e+00
       22  1    1    2    0    0 +1.2684134256e+02 -7.7749714649e+02 -3.1772637079e+03 3.2734683760e+03 0.0000000000e+00 0.0000e+00 -1.0000e+00
</event>
<event>
 6      1 +1.4834189e-01 1.00131800e+04 7.81653100e-03 6.93793000e-02
  1000022 -1    0    0    0    0 +0.0000000000e+00 +0.0000000000e+00 +4.4721471353e+01 1.0000100000e+04 1.0000000000e+04 0.0000e+00 -1.0000e+00
  1000022 -1    0    0    0    0 -0.0000000000e+00 -0.0000000000e+00 -4.4721471353e+01 1.0000100000e+04 1.0000000000e+04 0.0000e+00 -1.0000e+00
      -24  1    1    2    0    0 +4.7303675022e+03 -6.9832884225e+03 +2.0467061952e+03 8.6797507348e+03 7.9829010000e+01 0.0000e+00 1.0000e+00
       24  1    1    2    0    0 -5.4255867251e+03 +8.0775719576e+03 -2.2472479206e+03 9.9870243781e+03 7.9829010000e+01 0.0000e+00 1.0000e+00
       22  1    1    2    0    0 +1.9882900760e+01 +8.8801818247e+00 -8.1155169317e+00 2.3238954085e+01 0.0000000000e+00 0.0000e+00 -1.0000e+00
       22  1    1    2    0    0 +6.7533632212e+02 -1.1031637169e+03 +2.0865724236e+02 1.3101859330e+03 0.0000000000e+00 0.0000e+00 -1.0000e+00
</event>
<event>
 6      1 +1.4834189e-01 1.05278900e+04 7.81653100e-03 6.90780300e-02
  1000022 -1    0    0    0    0 +0.0000000000e+00 +0.0000000000e+00 +4.4721471353e+01 1.0000100000e+04 1.0000000000e+04 0.0000e+00 -1.0000e+00
  1000022 -1    0    0    0    0 -0.0000000000e+00 -0.0000000000e+00 -4.4721471353e+01 1.0000100000e+04 1.0000000000e+04 0.0000e+00 -1.0000e+00
      -24  1    1    2    0    0 +3.0945086299e+03 -6.4837832997e+02 -2.2928434647e+03 3.9063898863e+03 7.9829010000e+01 0.0000e+00 -1.0000e+00
       24  1    1    2    0    0 -3.0396022075e+03 +5.4344370150e+03 +6.3255181335e+03 8.8764204259e+03 7.9829010000e+01 0.0000e+00 -1.0000e+00
       22  1    1    2    0    0 +4.0925457178e+02 -4.9668651400e+03 -4.3597042454e+03 6.6214998098e+03 0.0000000000e+00 0.0000e+00 -1.0000e+00
       22  1    1    2    0    0 -4.6416099423e+02 +1.8080645494e+02 +3.2702957658e+02 5.9588987797e+02 0.0000000000e+00 0.0000e+00 1.0000e+00
</event>
<event>
 6      1 +1.4834189e-01 1.00019500e+04 7.81653100e-03 6.93860800e-02
  1000022 -1    0    0    0    0 +0.0000000000e+00 +0.0000000000e+00 +4.4721471353e+01 1.0000100000e+04 1.0000000000e+04 0.0000e+00 1.0000e+00
  1000022 -1    0    0    0    0 -0.0000000000e+00 -0.0000000000e+00 -4.4721471353e+01 1.0000100000e+04 1.0000000000e+04 0.0000e+00 1.0000e+00
      -24  1    1    2    0    0 -1.0600015484e+03 -9.6664095411e+03 +1.7832186352e+03 9.8868254800e+03 7.9829010000e+01 0.0000e+00 1.0000e+00
       24  1    1    2    0    0 +9.8052639514e+02 +9.2646422449e+03 -1.6636999937e+03 9.4641057833e+03 7.9829010000e+01 0.0000e+00 1.0000e+00
       22  1    1    2    0    0 -1.6059645718e+01 -1.0723838268e+02 +2.5624828757e+01 1.1142089028e+02 0.0000000000e+00 0.0000e+00 -1.0000e+00
       22  1    1    2    0    0 +9.5534798933e+01 +5.0900567892e+02 -1.4514347025e+02 5.3784784645e+02 0.0000000000e+00 0.0000e+00 1.0000e+00
</event>
<event>
 6      1 +1.4834189e-01 1.00175200e+04 7.81653100e-03 6.93766900e-02
  1000022 -1    0    0    0    0 +0.0000000000e+00 +0.0000000000e+00 +4.4721471353e+01 1.0000100000e+04 1.0000000000e+04 0.0000e+00 1.0000e+00
  1000022 -1    0    0    0    0 -0.0000000000e+00 -0.0000000000e+00 -4.4721471353e+01 1.0000100000e+04 1.0000000000e+04 0.0000e+00 1.0000e+00
      -24  1    1    2    0    0 +5.1072951244e+03 -8.4124285203e+03 +1.6210568554e+03 9.9743478532e+03 7.9829010000e+01 0.0000e+00 1.0000e+00
       24  1    1    2    0    0 -4.2344230641e+03 +6.9300350029e+03 -1.4103479623e+03 8.2432504434e+03 7.9829010000e+01 0.0000e+00 1.0000e+00
       22  1    1    2    0    0 +1.2793088250e+01 -5.0199300912e+00 -4.0922214561e+01 4.3168164771e+01 0.0000000000e+00 0.0000e+00 -1.0000e+00
       22  1    1    2    0    0 -8.8566514855e+02 +1.4874134475e+03 -1.6978667849e+02 1.7394335387e+03 0.0000000000e+00 0.0000e+00 1.0000e+00
</event>
<event>
 6      1 +1.4834189e-01 1.00016500e+04 7.81653100e-03 6.93862600e-02
  1000022 -1    0    0    0    0 +0.0000000000e+00 +0.0000000000e+00 +4.4721471353e+01 1.0000100000e+04 1.0000000000e+04 0.0000e+00 1.0000e+00
  1000022 -1    0    0    0    0 -0.0000000000e+00 -0.0000000000e+00 -4.4721471353e+01 1.0000100000e+04 1.0000000000e+04 0.0000e+00 1.0000e+00
      -24  1    1    2    0    0 +8.4048782086e+03 +1.4067169452e+03 -1.4444018641e+03 8.6436971072e+03 7.9829010000e+01 0.0000e+00 -1.0000e+00
       24  1    1    2    0    0 -1.2996034211e+03 -2.5894966729e+02 +2.5851102154e+02 1.3524882999e+03 7.9829010000e+01 0.0000e+00 0.0000e+00
       22  1    1    2    0    0 -8.4234528166e+03 -1.3519454190e+03 +1.4232628388e+03 8.6491612818e+03 0.0000000000e+00 0.0000e+00 -1.0000e+00
       22  1    1    2    0    0 +1.3181780291e+03 +2.0417814108e+02 -2.3737199621e+02 1.3548533110e+03 0.0000000000e+00 0.0000e+00 1.0000e+00
</event>
<event>
 6      1 +1.4834189e-01 1.00006000e+04 7.81653100e-03 6.93868900e-02
  1000022 -1    0    0    0    0 +0.0000000000e+00 +0.0000000000e+00 +4.4721471353e+01 1.0000100000e+04 1.0000000000e+04 0.0000e+00 -1.0000e+00
  1000022 -1    0    0    0    0 -0.0000000000e+00 -0.0000000000e+00 -4.4721471353e+01 1.0000100000e+04 1.0000000000e+04 0.0000e+00 -1.0000e+00
      -24  1    1    2    0    0 -2.3058847475e+03 -3.0534643817e+03 +4.1200270364e+03 5.6233214963e+03 7.9829010000e+01 0.0000e+00 -1.0000e+00
       24  1    1    2    0    0 +4.0846397838e+03 +5.5007489480e+03 -7.2398164585e+03 9.9681410592e+03 7.9829010000e+01 0.0000e+00 -1.0000e+00
       22  1    1    2    0    0 +1.2601367619e+01 +1.8392881436e+01 -2.2192720754e+01 3.1458057916e+01 0.0000000000e+00 0.0000e+00 -1.0000e+00
       22  1    1    2    0    0 -1.7913564040e+03 -2.4656774477e+03 +3.1419821429e+03 4.3772793866e+03 0.0000000000e+00 0.0000e+00 -1.0000e+00
</event>
<event>
 6      1 +1.4834189e-01 1.00001700e+04 7.81653100e-03 6.93871500e-02
  1000022 -1    0    0    0    0 +0.0000000000e+00 +0.0000000000e+00 +4.4721471353e+01 1.0000100000e+04 1.0000000000e+04 0.0000e+00 -1.0000e+00
  1000022 -1    0    0    0    0 -0.0000000000e+00 -0.0000000000e+00 -4.4721471353e+01 1.0000100000e+04 1.0000000000e+04 0.0000e+00 -1.0000e+00
      -24  1    1    2    0    0 -7.9776552489e+03 +4.3672251024e+03 -2.4092306757e+03 9.4088470859e+03 7.9829010000e+01 0.0000e+00 -1.0000e+00
       24  1    1    2    0    0 +8.3965096519e+03 -4.6170468327e+03 +2.5345936337e+03 9.9120650396e+03 7.9829010000e+01 0.0000e+00 -1.0000e+00
       22  1    1    2    0    0 -4.9014505880e+02 +2.9302851657e+02 -1.5345940572e+02 5.9131859381e+02 0.0000000000e+00 0.0000e+00 1.0000e+00
       22  1    1    2    0    0 +7.1290655838e+01 -4.3206786208e+01 +2.8096447655e+01 8.7969280747e+01 0.0000000000e+00 0.0000e+00 1.0000e+00
</event>
<event>
 6      1 +1.4834189e-01 1.00325000e+04 7.81653100e-03 6.93676600e-02
  1000022 -1    0    0    0    0 +0.0000000000e+00 +0.0000000000e+00 +4.4721471353e+01 1.0000100000e+04 1.0000000000e+04 0.0000e+00 1.0000e+00
  1000022 -1    0    0    0    0 -0.0000000000e+00 -0.0000000000e+00 -4.4721471353e+01 1.0000100000e+04 1.0000000000e+04 0.0000e+00 1.0000e+00
      -24  1    1    2    0    0 +4.4456896452e+03 +6.9390226757e+03 +3.3981045580e+03 8.9144646151e+03 7.9829010000e+01 0.0000e+00 1.0000e+00
       24  1    1    2    0    0 -4.6363904554e+03 -7.9625086602e+03 -3.8014375391e+03 9.9676958548e+03 7.9829010000e+01 0.0000e+00 1.0000e+00
       22  1    1    2    0    0 +1.1392660713e+01 +1.7770964303e+01 +1.0016718688e+01 2.3365242213e+01 0.0000000000e+00 0.0000e+00 1.0000e+00
       22  1    1    2    0    0 +1.7930814953e+02 +1.0057150202e+03 +3.9331626242e+02 1.0946742879e+03 0.0000000000e+00 0.0000e+00 1.0000e+00
</event>
<event>
 6      1 +1.4834189e-01 1.01053600e+04 7.81653100e-03 6.93240300e-02
  1000022 -1    0    0    0    0 +0.0000000000e+00 +0.0000000000e+00 +4.4721471353e+01 1.0000100000e+04 1.0000000000e+04 0.0000e+00 -1.0000e+00
  1000022 -1    0    0    0    0 -0.0000000000e+00 -0.0000000000e+00 -4.4721471353e+01 1.0000100000e+04 1.0000000000e+04 0.0000e+00 -1.0000e+00
      -24  1    1    2    0    0 +4.6446629609e+03 +3.1727364957e+03 +8.1401677523e+03 9.8948397965e+03 7.9829010000e+01 0.0000e+00 -1.0000e+00
       24  1    1    2    0    0 -4.1577914687e+03 -3.2220219674e+03 -6.6483306583e+03 8.4779318627e+03 7.9829010000e+01 0.0000e+00 -1.0000e+00
       22  1    1    2    0    0 -1.8664421146e+02 -1.4478980189e+02 -2.9266171232e+02 3.7609975573e+02 0.0000000000e+00 0.0000e+00 -1.0000e+00
       22  1    1    2    0    0 -3.0022728076e+02 +1.9407527366e+02 -1.1991753816e+03 1.2513285851e+03 0.0000000000e+00 0.0000e+00 -1.0000e+00
</event>
<event>
 6      1 +1.4834189e-01 1.00114500e+04 7.81653100e-03 6.93803500e-02
  1000022 -1    0    0    0    0 +0.0000000000e+00 +0.0000000000e+00 +4.4721471353e+01 1.0000100000e+04 1.0000000000e+04 0.0000e+00 1.0000e+00
  1000022 -1    0    0    0    0 -0.0000000000e+00 -0.0000000000e+00 -4.4721471353e+01 1.0000100000e+04 1.0000000000e+04 0.0000e+00 1.0000e+00
      -24  1    1    2    0    0 -1.0957669696e+02 +1.5684020962e+02 +1.7601966771e+02 2.7195863312e+02 7.9829010000e+01 0.0000e+00 0.0000e+00
       24  1    1    2    0    0 +3.1118783524e+03 -3.9078084441e+03 -8.3543004583e+03 9.7342417545e+03 7.9829010000e+01 0.0000e+00 -1.0000e+00
       22  1    1    2    0    0 -3.0904752159e+03 +3.8465326955e+03 +8.3970700760e+03 9.7394885235e+03 0.0000000000e+00 0.0000e+00 -1.0000e+00
       22  1    1    2    0    0 +8.8173560475e+01 -9.5564461048e+01 -2.1878928537e+02 2.5451108890e+02 0.0000000000e+00 0.0000e+00 -1.0000e+00
</event>
<event>
 6      1 +1.4834189e-01 1.06176100e+04 7.81653100e-03 6.90272900e-02
  1000022 -1    0    0    0    0 +0.0000000000e+00 +0.0000000000e+00 +4.4721471353e+01 1.0000100000e+04 1.0000000000e+04 0.0000e+00 -1.0000e+00
  1000022 -1    0    0    0    0 -0.0000000000e+00 -0.0000000000e+00 -4.4721471353e+01 1.0000100000e+04 1.0000000000e+04 0.0000e+00 -1.0000e+00
      -24  1    1    2    0    0 +3.1373594118e+03 +5.0282058543e+03 +5.8335363032e+03 8.3163932485e+03 7.9829010000e+01 0.0000e+00 -1.0000e+00
       24  1    1    2    0    0 -2.2265488615e+03 -6.2915479460e+03 -5.3318874985e+03 8.5426279539e+03 7.9829010000e+01 0.0000e+00 -1.0000e+00
       22  1    1    2    0    0 -1.3138476150e+03 +8.1759057375e+02 -1.3823538609e+03 2.0749824333e+03 0.0000000000e+00 0.0000e+00 -1.0000e+00
       22  1    1    2    0    0 +4.0303706475e+02 +4.4575151797e+02 +8.8070505618e+02 1.0661963643e+03 0.0000000000e+00 0.0000e+00 -1.0000e+00
</event>
<event>
 6      1 +1.4834189e-01 1.01682200e+04 7.81653100e-03 6.92866700e-02
  1000022 -1    0    0    0    0 +0.0000000000e+00 +0.0000000000e+00 +4.4721471353e+01 1.0000100000e+04 1.0000000000e+04 0.0000e+00 -1.0000e+00
  1000022 -1    0    0    0    0 -0.0000000000e+00 -0.0000000000e+00 -4.4721471353e+01 1.0000100000e+04 1.0000000000e+04 0.0000e+00 -1.0000e+00
      -24  1    1    2    0    0 -4.6474169828e+03 +7.8315737838e+03 +3.7053292702e+03 9.8319820084e+03 7.9829010000e+01 0.0000e+00 1.0000e+00
       24  1    1    2    0    0 +6.5590758211e+02 -1.6740196664e+03 -9.6135660756e+02 2.0403763863e+03 7.9829010000e+01 0.0000e+00 1.0000e+00
       22  1    1    2    0    0 +1.7225369857e+03 -9.6759446706e+02 -5.2332343304e+02 2.0438297716e+03 0.0000000000e+00 0.0000e+00 -1.0000e+00
       22  1    1    2    0    0 +2.2689724150e+03 -5.1899596503e+03 -2.2206492296e+03 6.0840118337e+03 0.0000000000e+00 0.0000e+00 1.0000e+00
</event>
<event>
 6      1 +1.4834189e-01 1.00259300e+04 7.81653100e-03 6.93716200e-02
  1000022 -1    0    0    0    0 +0.0000000000e+00 +0.0000000000e+00 +4.4721471353e+01 1.0000100000e+04 1.0000000000e+04 0.0000e+00 1.0000e+00
  1000022 -1    0    0    0    0 -0.0000000000e+00 -0.0000000000e+00 -4.4721471353e+01 1.0000100000e+04 1.0000000000e+04 0.0000e+00 1.0000e+00
      -24  1    1    2    0    0 +1.8924768421e+03 -3.4552221024e+02 +6.1621308513e+02 2.0216195074e+03 7.9829010000e+01 0.0000e+00 1.0000e+00
       24  1    1    2    0    0 -8.7277863317e+03 +1.6958585548e+03 -4.5198926575e+03 9.9742665292e+03 7.9829010000e+01 0.0000e+00 1.0000e+00
       22  1    1    2    0    0 +6.8268647304e+03 -1.3167015390e+03 +3.8908403207e+03 7.9673347734e+03 0.0000000000e+00 0.0000e+00 1.0000e+00
       22  1    1    2    0    0 +8.4447592396e+00 -3.3634805617e+01 +1.2839251653e+01 3.6979189966e+01 0.0000000000e+00 0.0000e+00 1.0000e+00
</event>
<event>
 6      1 +1.4834189e-01 9.40837500e+03 7.81653100e-03 6.97574900e-02
  1000022 -1    0    0    0    0 +0.0000000000e+00 +0.0000000000e+00 +4.4721471353e+01 1.0000100000e+04 1.0000000000e+04 0.0000e+00 1.0000e+00
  1000022 -1    0    0    0    0 -0.0000000000e+00 -0.0000000000e+00 -4.4721471353e+01 1.0000100000e+04 1.0000000000e+04 0.0000e+00 1.0000e+00
      -24  1    1    2    0    0 -7.2490403275e+02 -7.5782648700e+03 +3.9410113560e+02 7.6234685460e+03 7.9829010000e+01 0.0000e+00 1.0000e+00
       24  1    1    2    0    0 +6.5231581917e+02 +2.6956470880e+02 -9.8223711366e+02 1.2121647901e+03 7.9829010000e+01 0.0000e+00 -1.0000e+00
       22  1    1    2    0    0 +6.8884636884e+02 +9.1456711660e+03 +8.4324602437e+02 9.2102591849e+03 0.0000000000e+00 0.0000e+00 1.0000e+00
       22  1    1    2    0    0 -6.1625815526e+02 -1.8369710048e+03 -2.5511004630e+02 1.9543074789e+03 0.0000000000e+00 0.0000e+00 -1.0000e+00
</event>
<event>
 6      1 +1.4834189e-01 1.00027200e+04 7.81653100e-03 6.93856100e-02
  1000022 -1    0    0    0    0 +0.0000000000e+00 +0.0000000000e+00 +4.4721471353e+01 1.0000100000e+04 1.0000000000e+04 0.0000e+00 1.0000e+00
  1000022 -1    0    0    0    0 -0.0000000000e+00 -0.0000000000e+00 -4.4721471353e+01 1.0000100000e+04 1.0000000000e+04 0.0000e+00 1.0000e+00
      -24  1    1    2    0    0 +9.4215064729e+03 -3.2843397310e+03 +3.5124546950e+02 9.9840581799e+03 7.9829010000e+01 0.0000e+00 1.0000e+00
       24  1    1    2    0    0 -9.3353668696e+03 +3.2604226208e+03 -3.2717845591e+02 9.8940814970e+03 7.9829010000e+01 0.0000e+00 1.0000e+00
       22  1    1    2    0    0 +8.1616813235e+00 -1.5069677454e+01 -7.3922887646e+00 1.8664248010e+01 0.0000000000e+00 0.0000e+00 1.0000e+00
       22  1    1    2    0    0 -9.4301284681e+01 +3.8986787669e+01 -1.6674724827e+01 1.0339607514e+02 0.0000000000e+00 0.0000e+00 -1.0000e+00
</event>
<event>
 6      1 +1.4834189e-01 9.26129300e+03 7.81653100e-03 6.98538000e-02
  1000022 -1    0    0    0    0 +0.0000000000e+00 +0.0000000000e+00 +4.4721471353e+01 1.0000100000e+04 1.0000000000e+04 0.0000e+00 -1.0000e+00
  1000022 -1    0    0    0    0 -0.0000000000e+00 -0.0000000000e+00 -4.4721471353e+01 1.0000100000e+04 1.0000000000e+04 0.0000e+00 -1.0000e+00
      -24  1    1    2    0    0 +5.5976580892e+03 -4.4501774122e+03 +5.8975696234e+03 9.2696038328e+03 7.9829010000e+01 0.0000e+00 1.0000e+00
       24  1    1    2    0    0 +2.2275318146e+02 +1.3740634640e+03 +2.9158598207e+02 1.4244523294e+03 7.9829010000e+01 0.0000e+00 1.0000e+00
       22  1    1    2    0    0 -5.8904458149e+03 +3.1402614148e+03 -6.2870010123e+03 9.1697860052e+03 0.0000000000e+00 0.0000e+00 1.0000e+00
       22  1    1    2    0    0 +7.0034544293e+01 -6.4147466657e+01 +9.7845406825e+01 1.3635783259e+02 0.0000000000e+00 0.0000e+00 -1.0000e+00
</event>
<event>
 6      1 +1.4834189e-01 1.00059500e+04 7.81653100e-03 6.93836700e-02
  1000022 -1    0    0    0    0 +0.0000000000e+00 +0.0000000000e+00 +4.4721471353e+01 1.0000100000e+04 1.0000000000e+04 0.0000e+00 -1.0000e+00
  1000022 -1    0    0    0    0 -0.0000000000e+00 -0.0000000000e+00 -4.4721471353e+01 1.0000100000e+04 1.0000000000e+04 0.0000e+00 -1.0000e+00
      -24  1    1    2    0    0 +7.2474503318e+01 +4.4940758137e+03 +2.7135013903e+03 5.2508506396e+03 7.9829010000e+01 0.0000e+00 1.0000e+00
       24  1    1    2    0    0 +4.6307613465e+01 -8.5961849501e+03 -5.0972736226e+03 9.9942539064e+03 7.9829010000e+01 0.0000e+00 1.0000e+00
       22  1    1    2    0    0 +4.4368145564e+00 +6.1823961994e+01 -7.9682592781e-01 6.1988083787e+01 0.0000000000e+00 0.0000e+00 -1.0000e+00
       22  1    1    2    0    0 -1.2321893134e+02 +4.0402851744e+03 +2.3845690582e+03 4.6931073703e+03 0.0000000000e+00 0.0000e+00 1.0000e+00
</event>
<event>
 6      1 +1.4834189e-01 1.06541400e+04 7.81653100e-03 6.90067700e-02
  1000022 -1    0    0    0    0 +0.0000000000e+00 +0.0000000000e+00 +4.4721471353e+01 1.0000100000e+04 1.0000000000e+04 0.0000e+00 -1.0000e+00
  1000022 -1    0    0    0    0 -0.0000000000e+00 -0.0000000000e+00 -4.4721471353e+01 1.0000100000e+04 1.0000000000e+04 0.0000e+00 -1.0000e+00
      -24  1    1    2    0    0 -6.1298604094e+03 -5.0582922826e+03 -4.9174197452e+03 9.3460632929e+03 7.9829010000e+01 0.0000e+00 -1.0000e+00
       24  1    1    2    0    0 +4.0128317467e+02 +8.7858440439e+02 +5.2431883067e+02 1.1019172605e+03 7.9829010000e+01 0.0000e+00 0.0000e+00
       22  1    1    2    0    0 +3.9347559088e+03 +1.0372477857e+01 +2.2529181853e+03 4.5340988079e+03 0.0000000000e+00 0.0000e+00 -1.0000e+00
       22  1    1    2    0    0 +1.7938213259e+03 +4.1693354004e+03 +2.1401827291e+03 5.0181206387e+03 0.0000000000e+00 0.0000e+00 -1.0000e+00
</event>
<event>
 6      1 +1.4834189e-01 1.00251100e+04 7.81653100e-03 6.93721100e-02
  1000022 -1    0    0    0    0 +0.0000000000e+00 +0.0000000000e+00 +4.4721471353e+01 1.0000100000e+04 1.0000000000e+04 0.0000e+00 1.0000e+00
  1000022 -1    0    0    0    0 -0.0000000000e+00 -0.0000000000e+00 -4.4721471353e+01 1.0000100000e+04 1.0000000000e+04 0.0000e+00 1.0000e+00
      -24  1    1    2    0    0 -4.1897841937e+03 -2.1497279631e+03 +8.7932009287e+03 9.9750878266e+03 7.9829010000e+01 0.0000e+00 1.0000e+00
       24  1    1    2    0    0 +6.3835201129e+01 +9.9832666062e+01 -1.0368137466e+02 1.7653326147e+02 7.9829010000e+01 0.0000e+00 1.0000e+00
       22  1    1    2    0    0 +4.1074087930e+03 +2.0400341350e+03 -8.6917463993e+03 9.8274616120e+03 0.0000000000e+00 0.0000e+00 1.0000e+00
       22  1    1    2    0    0 +1.8540199580e+01 +9.8611620154e+00 +2.2268453025e+00 2.1117299941e+01 0.0000000000e+00 0.0000e+00 1.0000e+00
</event>
<event>
 6      1 +1.4834189e-01 1.00154100e+04 7.81653100e-03 6.93779600e-02
  1000022 -1    0    0    0    0 +0.0000000000e+00 +0.0000000000e+00 +4.4721471353e+01 1.0000100000e+04 1.0000000000e+04 0.0000e+00 1.0000e+00
  1000022 -1    0    0    0    0 -0.0000000000e+00 -0.0000000000e+00 -4.4721471353e+01 1.0000100000e+04 1.0000000000e+04 0.0000e+00 1.0000e+00
      -24  1    1    2    0    0 -1.9920837235e+02 -1.8045360905e+02 +1.8762541730e+01 2.8101990044e+02 7.9829010000e+01 0.0000e+00 0.0000e+00
       24  1    1    2    0    0 +6.3690159732e+03 +6.0935779808e+03 +3.2100175785e+03 9.3811855647e+03 7.9829010000e+01 0.0000e+00 1.0000e+00
       22  1    1    2    0    0 +3.4730322530e+02 +4.3158262743e+02 +2.3969603263e+02 6.0360358073e+02 0.0000000000e+00 0.0000e+00 -1.0000e+00
       22  1    1    2    0    0 -6.5171108261e+03 -6.3447069992e+03 -3.4684761528e+03 9.7343909541e+03 0.0000000000e+00 0.0000e+00 1.0000e+00
</event>
<event>
 6      1 +1.4834189e-01 1.00013800e+04 7.81653100e-03 6.93864200e-02
  1000022 -1    0    0    0    0 +0.0000000000e+00 +0.0000000000e+00 +4.4721471353e+01 1.0000100000e+04 1.0000000000e+04 0.0000e+00 -1.0000e+00
  1000022 -1    0    0    0    0 -0.0000000000e+00 -0.0000000000e+00 -4.4721471353e+01 1.0000100000e+04 1.0000000000e+04 0.0000e+00 -1.0000e+00
      -24  1    1    2    0    0 +6.5811156976e+02 -7.4862830380e+02 -4.9616814170e+02 1.1162932729e+03 7.9829010000e+01 0.0000e+00 0.0000e+00
       24  1    1    2    0    0 -6.0644412090e+03 +6.4330563530e+03 +4.3031128607e+03 9.8328436467e+03 7.9829010000e+01 0.0000e+00 -1.0000e+00
       22  1    1    2    0    0 -1.0209263021e+02 +1.1614815483e+02 +6.0280118922e+01 1.6597286450e+02 0.0000000000e+00 0.0000e+00 1.0000e+00
       22  1    1    2    0    0 +5.5084222694e+03 -5.8005762040e+03 -3.8672248379e+03 8.8850902159e+03 0.0000000000e+00 0.0000e+00 -1.0000e+00
</event>
<event>
 6      1 +1.4834189e-01 1.00070400e+04 7.81653100e-03 6.93830100e-02
  1000022 -1    0    0    0    0 +0.0000000000e+00 +0.0000000000e+00 +4.4721471353e+01 1.0000100000e+04 1.0000000000e+04 0.0000e+00 -1.0000e+00
  1000022 -1    0    0    0    0 -0.0000000000e+00 -0.0000000000e+00 -4.4721471353e+01 1.0000100000e+04 1.0000000000e+04 0.0000e+00 -1.0000e+00
      -24  1    1    2    0    0 -3.9326818044e+03 -1.8535404097e+03 -8.3214039064e+03 9.3890219869e+03 7.9829010000e+01 0.0000e+00 1.0000e+00
       24  1    1    2    0    0 +2.8748913151e+02 +3.7820372234e+02 +1.0428246062e+03 1.1487140142e+03 7.9829010000e+01 0.0000e+00 1.0000e+00
       22  1    1    2    0    0 +4.0942422524e+03 +1.4585631238e+03 +7.7028608022e+03 8.8444497028e+03 0.0000000000e+00 0.0000e+00 1.0000e+00
       22  1    1    2    0    0 -4.4904957951e+02 +1.6773563589e+01 -4.2428150197e+02 6.1801429612e+02 0.0000000000e+00 0.0000e+00 1.0000e+00
</event>
<event>
 6      1 +1.4834189e-01 1.06406100e+04 7.81653100e-03 6.90143600e-02
  1000022 -1    0    0    0    0 +0.0000000000e+00 +0.0000000000e+00 +4.4721471353e+01 1.0000100000e+04 1.0000000000e+04 0.0000e+00 1.0000e+00
  1000022 -1    0    0    0    0 -0.0000000000e+00 -0.0000000000e+00 -4.4721471353e+01 1.0000100000e+04 1.0000000000e+04 0.0000e+00 1.0000e+00
      -24  1    1    2    0    0 -4.0075821265e+03 -3.8459094215e+03 -7.5328489370e+03 9.3595897109e+03 7.9829010000e+01 0.0000e+00 -1.0000e+00
       24  1    1    2    0    0 +5.0627560170e+03 +3.4475542901e+03 +5.1874239699e+03 8.0270087321e+03 7.9829010000e+01 0.0000e+00 -1.0000e+00
       22  1    1    2    0    0 -1.0664352588e+03 +3.9116847103e+02 +2.3350683623e+03 2.5966981324e+03 0.0000000000e+00 0.0000e+00 -1.0000e+00
       22  1    1    2    0    0 +1.1261368269e+01 +7.1866603272e+00 +1.0356604778e+01 1.6903424637e+01 0.0000000000e+00 0.0000e+00 1.0000e+00
</event>
<event>
 6      1 +1.4834189e-01 1.00145200e+04 7.81653100e-03 6.93784900e-02
  1000022 -1    0    0    0    0 +0.0000000000e+00 +0.0000000000e+00 +4.4721471353e+01 1.0000100000e+04 1.0000000000e+04 0.0000e+00 1.0000e+00
  1000022 -1    0    0    0    0 -0.0000000000e+00 -0.0000000000e+00 -4.4721471353e+01 1.0000100000e+04 1.0000000000e+04 0.0000e+00 1.0000e+00
      -24  1    1    2    0    0 -3.5548182927e+02 -7.0196747343e+02 +5.5299306257e+02 9.6503868460e+02 7.9829010000e+01 0.0000e+00 1.0000e+00
       24  1    1    2    0    0 +5.6005995750e+03 +6.5871868811e+03 -4.8959081619e+03 9.9365001891e+03 7.9829010000e+01 0.0000e+00 1.0000e+00
       22  1    1    2    0    0 +2.5810574109e+01 +3.2819638685e+01 -2.5983602195e+01 4.9177860896e+01 0.0000000000e+00 0.0000e+00 1.0000e+00
       22  1    1    2    0    0 -5.2709283199e+03 -5.9180390463e+03 +4.3688987015e+03 9.0494832654e+03 0.0000000000e+00 0.0000e+00 1.0000e+00
</event>
<event>
 6      1 +1.4834189e-01 1.00018300e+04 7.81653100e-03 6.93861500e-02
  1000022 -1    0    0    0    0 +0.0000000000e+00 +0.0000000000e+00 +4.4721471353e+01 1.0000100000e+04 1.0000000000e+04 0.0000e+00 1.0000e+00
  1000022 -1    0    0    0    0 -0.0000000000e+00 -0.0000000000e+00 -4.4721471353e+01 1.0000100000e+04 1.0000000000e+04 0.0000e+00 1.0000e+00
      -24  1    1    2    0    0 -8.1448591369e+02 -2.4519018905e+03 -5.0942862768e+02 2.6345968158e+03 7.9829010000e+01 0.0000e+00 1.0000e+00
       24  1    1    2    0    0 +3.4714875951e+03 +8.9739121659e+03 +1.5057651360e+03 9.7394058853e+03 7.9829010000e+01 0.0000e+00 -1.0000e+00
       22  1    1    2    0    0 +1.0429718230e+02 +2.2258490359e+02 +8.1501045616e+01 2.5896787828e+02 0.0000000000e+00 0.0000e+00 1.0000e+00
       22  1    1    2    0    0 -2.7612988638e+03 -6.7445951789e+03 -1.0778375539e+03 7.3672294206e+03 0.0000000000e+00 0.0000e+00 -1.0000e+00
</event>
<event>
 6      1 +1.4834189e-01 1.00049900e+04 7.81653100e-03 6.93842400e-02
  1000022 -1    0    0    0    0 +0.0000000000e+00 +0.0000000000e+00 +4.4721471353e+01 1.0000100000e+04 1.0000000000e+04 0.0000e+00 -1.0000e+00
  1000022 -1    0    0    0    0 -0.0000000000e+00 -0.0000000000e+00 -4.4721471353e+01 1.0000100000e+04 1.0000000000e+04 0.0000e+00 -1.0000e+00
      -24  1    1    2    0    0 -2.4379865674e+03 -1.9610895291e+03 -8.8440604700e+03 9.3815472558e+03 7.9829010000e+01 0.0000e+00 1.0000e+00
       24  1    1    2    0    0 +1.7343069775e+03 +1.7094817580e+03 +6.7957356632e+03 7.2193174503e+03 7.9829010000e+01 0.0000e+00 1.0000e+00
       22  1    1    2    0    0 -1.5606061910e+02 -1.7717130291e+02 -5.6642988959e+02 6.1366717953e+02 0.0000000000e+00 0.0000e+00 1.0000e+00
       22  1    1    2    0    0 +8.5974020898e+02 +4.2877907397e+02 +2.6147546964e+03 2.7856681144e+03 0.0000000000e+00 0.0000e+00 1.0000e+00
</event>
<event>
 6      1 +1.4834189e-01 1.00156700e+04 7.81653100e-03 6.93778000e-02
  1000022 -1    0    0    0    0 +0.0000000000e+00 +0.0000000000e+00 +4.4721471353e+01 1.0000100000e+04 1.0000000000e+04 0.0000e+00 -1.0000e+00
  1000022 -1    0    0    0    0 -0.0000000000e+00 -0.0000000000e+00 -4.4721471353e+01 1.0000100000e+04 1.0000000000e+04 0.0000e+00 -1.0000e+00
      -24  1    1    2    0    0 +4.7407370037e+03 +7.6344731411e+03 +3.3906630691e+03 9.6053493533e+03 7.9829010000e+01 0.0000e+00 1.0000e+00
       24  1    1    2    0    0 -4.9588909829e+03 -7.8569286918e+03 -3.6554710533e+03 9.9845265056e+03 7.9829010000e+01 0.0000e+00 1.0000e+00
       22  1    1    2    0    0 +2.0721886905e+02 +2.0805861241e+02 +2.5837785204e+02 3.9113573132e+02 0.0000000000e+00 0.0000e+00 1.0000e+00
       22  1    1    2    0    0 +1.0935110158e+01 +1.4396938340e+01 +6.4301321280e+00 1.9188409703e+01 0.0000000000e+00 0.0000e+00 1.0000e+00
</event>
<event>
 6      1 +1.4834189e-01 1.00087800e+04 7.81653100e-03 6.93819600e-02
  1000022 -1    0    0    0    0 +0.0000000000e+00 +0.0000000000e+00 +4.4721471353e+01 1.0000100000e+04 1.0000000000e+04 0.0000e+00 -1.0000e+00
  1000022 -1    0    0    0    0 -0.0000000000e+00 -0.0000000000e+00 -4.4721471353e+01 1.0000100000e+04 1.0000000000e+04 0.0000e+00 -1.0000e+00
      -24  1    1    2    0    0 +4.4539316703e+03 -3.9496263914e+03 -7.4522895766e+03 9.5383462172e+03 7.9829010000e+01 0.0000e+00 1.0000e+00
       24  1    1    2    0    0 -4.6661174785e+03 +4.0963801397e+03 +7.8274592195e+03 9.9914199729e+03 7.9829010000e+01 0.0000e+00 1.0000e+00
       22  1    1    2    0    0 +1.8623905027e+02 -1.6698623816e+02 -3.1953620218e+02 4.0579893061e+02 0.0000000000e+00 0.0000e+00 -1.0000e+00
       22  1    1    2    0    0 +2.5946757941e+01 +2.0232489812e+01 -5.5633440644e+01 6.4634879202e+01 0.0000000000e+00 0.0000e+00 -1.0000e+00
</event>
<event>
 6      1 +1.4834189e-01 1.00041400e+04 7.81653100e-03 6.93847500e-02
  1000022 -1    0    0    0    0 +0.0000000000e+00 +0.0000000000e+00 +4.4721471353e+01 1.0000100000e+04 1.0000000000e+04 0.0000e+00 1.0000e+00
  1000022 -1    0    0    0    0 -0.0000000000e+00 -0.0000000000e+00 -4.4721471353e+01 1.0000100000e+04 1.0000000000e+04 0.0000e+00 1.0000e+00
      -24  1    1    2    0    0 +6.4993738680e+03 +6.4350661798e+03 -1.6381084025e+03 9.2920239573e+03 7.9829010000e+01 0.0000e+00 1.0000e+00
       24  1    1    2    0    0 -5.7920069042e+03 -5.6396183813e+03 +1.3151726146e+03 8.1907686539e+03 7.9829010000e+01 0.0000e+00 1.0000e+00
       22  1    1    2    0    0 +5.3625024367e+02 +4.6825195372e+02 -1.6986486717e+01 7.1211849908e+02 0.0000000000e+00 0.0000e+00 1.0000e+00
       22  1    1    2    0    0 -1.2436172074e+03 -1.2636997522e+03 +3.3992227455e+02 1.8052888897e+03 0.0000000000e+00 0.0000e+00 1.0000e+00
</event>
<event>
 6      1 +1.4834189e-01 1.00194100e+04 7.81653100e-03 6.93755500e-02
  1000022 -1    0    0    0    0 +0.0000000000e+00 +0.0000000000e+00 +4.4721471353e+01 1.0000100000e+04 1.0000000000e+04 0.0000e+00 1.0000e+00
  1000022 -1    0    0    0    0 -0.0000000000e+00 -0.0000000000e+00 -4.4721471353e+01 1.0000100000e+04 1.0000000000e+04 0.0000e+00 1.0000e+00
      -24  1    1    2    0    0 -8.2283254644e+03 -3.8918476562e+03 -4.0936455580e+03 9.9807877822e+03 7.9829010000e+01 0.0000e+00 1.0000e+00
       24  1    1    2    0    0 +8.2244498104e+03 +3.8492468877e+03 +4.1032679087e+03 9.9650116150e+03 7.9829010000e+01 0.0000e+00 1.0000e+00
       22  1    1    2    0    0 +1.1296336340e+01 +5.6717075192e+00 +5.5338049021e+00 1.3798495483e+01 0.0000000000e+00 0.0000e+00 1.0000e+00
       22  1    1    2    0    0 -7.4206823423e+00 +3.6929060975e+01 -1.5156155538e+01 4.0602107354e+01 0.0000000000e+00 0.0000e+00 -1.0000e+00
</event>
<event>
 6      1 +1.4834189e-01 1.00256100e+04 7.81653100e-03 6.93718200e-02
  1000022 -1    0    0    0    0 +0.0000000000e+00 +0.0000000000e+00 +4.4721471353e+01 1.0000100000e+04 1.0000000000e+04 0.0000e+00 -1.0000e+00
  1000022 -1    0    0    0    0 -0.0000000000e+00 -0.0000000000e+00 -4.4721471353e+01 1.0000100000e+04 1.0000000000e+04 0.0000e+00 -1.0000e+00
      -24  1    1    2    0    0 +3.5407349879e+03 +1.2490993332e+03 -1.3589148729e+03 3.9937545870e+03 7.9829010000e+01 0.0000e+00 1.0000e+00
       24  1    1    2    0    0 -6.1748577084e+03 -3.0681135498e+03 +2.8423863224e+03 7.4583993692e+03 7.9829010000e+01 0.0000e+00 1.0000e+00
       22  1    1    2    0    0 +4.2789737917e+03 +3.2826563065e+03 -2.7014414058e+03 6.0318516896e+03 0.0000000000e+00 0.0000e+00 1.0000e+00
       22  1    1    2    0    0 -1.6448510712e+03 -1.4636420898e+03 +1.2179699563e+03 2.5161943542e+03 0.0000000000e+00 0.0000e+00 1.0000e+00
</event>
<event>
 6      1 +1.4834189e-01 9.30010100e+03 7.81653100e-03 6.98282200e-02
  1000022 -1    0    0    0    0 +0.0000000000e+00 +0.0000000000e+00 +4.4721471353e+01 1.0000100000e+04 1.0000000000e+04 0.0000e+00 1.0000e+00
  1000022 -1    0    0    0    0 -0.0000000000e+00 -0.0000000000e+00 -4.4721471353e+01 1.0000100000e+04 1.0000000000e+04 0.0000e+00 1.0000e+00
      -24  1    1    2    0    0 -6.2878555513e+02 +2.1628436630e+02 -5.9715435165e+02 8.9728267117e+02 7.9829010000e+01 0.0000e+00 -1.0000e+00
       24  1    1    2    0    0 +1.1612435047e+03 +5.8256853221e+02 +8.0612907519e+02 1.5310419095e+03 7.9829010000e+01 0.0000e+00 -1.0000e+00
       22  1    1    2    0    0 +3.9359955325e+02 -4.8948041814e+03 +7.3999526012e+03 8.8810656502e+03 0.0000000000e+00 0.0000e+00 -1.0000e+00
       22  1    1    2    0    0 -9.2605750281e+02 +4.0959512829e+03 -7.6089273248e+03 8.6908097692e+03 0.0000000000e+00 0.0000e+00 -1.0000e+00
</event>
<event>
 6      1 +1.4834189e-01 1.04221200e+04 7.81653100e-03 6.91385100e-02
  1000022 -1    0    0    0    0 +0.0000000000e+00 +0.0000000000e+00 +4.4721471353e+01 1.0000100000e+04 1.0000000000e+04 0.0000e+00 1.0000e+00
  1000022 -1    0    0    0    0 -0.0000000000e+00 -0.0000000000e+00 -4.4721471353e+01 1.0000100000e+04 1.0000000000e+04 0.0000e+00 1.0000e+00
      -24  1    1    2    0    0 -3.4804666686e+03 -5.7201611485e+03 +6.7896695461e+03 9.5362401926e+03 7.9829010000e+01 0.0000e+00 1.0000e+00
       24  1    1    2    0    0 +3.7837534971e+03 +2.8877469534e+03 -5.4642737807e+03 7.2471051887e+03 7.9829010000e+01 0.0000e+00 1.0000e+00
       22  1    1    2    0    0 -1.6178332550e+01 -2.4413734671e+01 +2.9886693098e+01 4.1844752467e+01 0.0000000000e+00 0.0000e+00 -1.0000e+00
       22  1    1    2    0    0 -2.8710849599e+02 +2.8568279297e+03 -1.3552824584e+03 3.1750098662e+03 0.0000000000e+00 0.0000e+00 1.0000e+00
</event>
<event>
 6      1 +1.4834189e-01 1.00099300e+04 7.81653100e-03 6.93812600e-02
  1000022 -1    0    0    0    0 +0.0000000000e+00 +0.0000000000e+00 +4.4721471353e+01 1.0000100000e+04 1.0000000000e+04 0.0000e+00 1.0000e+00
  1000022 -1    0    0    0    0 -0.0000000000e+00 -0.0000000000e+00 -4.4721471353e+01 1.0000100000e+04 1.0000000000e+04 0.0000e+00 1.0000e+00
      -24  1    1    2    0    0 -7.3000174372e+03 -2.3367281693e+03 +6.2508715809e+03 9.8909211559e+03 7.9829010000e+01 0.0000e+00 -1.0000e+00
       24  1    1    2    0    0 +7.2829820921e+03 +2.2101372423e+03 -6.2405191927e+03 9.8426107944e+03 7.9829010000e+01 0.0000e+00 -1.0000e+00
       22  1    1    2    0    0 -1.0678877391e+02 +5.0293721658e+01 +1.5144839930e+01 1.1900700336e+02 0.0000000000e+00 0.0000e+00 -1.0000e+00
       22  1    1    2    0    0 +1.2382411899e+02 +7.6297205290e+01 -2.5497228097e+01 1.4766104639e+02 0.0000000000e+00 0.0000e+00 1.0000e+00
</event>
<event>
 6      1 +1.4834189e-01 1.01982500e+04 7.81653100e-03 6.92689200e-02
  1000022 -1    0    0    0    0 +0.0000000000e+00 +0.0000000000e+00 +4.4721471353e+01 1.0000100000e+04 1.0000000000e+04 0.0000e+00 -1.0000e+00
  1000022 -1    0    0    0    0 -0.0000000000e+00 -0.0000000000e+00 -4.4721471353e+01 1.0000100000e+04 1.0000000000e+04 0.0000e+00 -1.0000e+00
      -24  1    1    2    0    0 +7.2432946532e+03 -4.2124502284e+03 -4.4815615917e+03 9.5026744304e+03 7.9829010000e+01 0.0000e+00 -1.0000e+00
       24  1    1    2    0    0 -7.5340304925e+03 +3.8669255053e+03 +4.9352908365e+03 9.8019486143e+03 7.9829010000e+01 0.0000e+00 -1.0000e+00
       22  1    1    2    0    0 +2.5545843598e+02 +3.8877233455e+02 -4.3449567915e+02 6.3654492050e+02 0.0000000000e+00 0.0000e+00 -1.0000e+00
       22  1    1    2    0    0 +3.5277403315e+01 -4.3247611474e+01 -1.9233565678e+01 5.9032034791e+01 0.0000000000e+00 0.0000e+00 -1.0000e+00
</event>
<event>
 6      1 +1.4834189e-01 1.00071100e+04 7.81653100e-03 6.93829700e-02
  1000022 -1    0    0    0    0 +0.0000000000e+00 +0.0000000000e+00 +4.4721471353e+01 1.0000100000e+04 1.0000000000e+04 0.0000e+00 -1.0000e+00
  1000022 -1    0    0    0    0 -0.0000000000e+00 -0.0000000000e+00 -4.4721471353e+01 1.0000100000e+04 1.0000000000e+04 0.0000e+00 -1.0000e+00
      -24  1    1    2    0    0 -9.8750067415e+03 -3.6858052469e+02 +1.0700009116e+03 9.9399640024e+03 7.9829010000e+01 0.0000e+00 -1.0000e+00
       24  1    1    2    0    0 +9.2774581346e+03 +2.6105267733e+02 -1.0232301094e+03 9.3377058460e+03 7.9829010000e+01 0.0000e+00 -1.0000e+00
       22  1    1    2    0    0 -5.0513791534e+01 +3.8277716807e+01 +2.2165682067e+01 6.7142715172e+01 0.0000000000e+00 0.0000e+00 -1.0000e+00
       22  1    1    2    0    0 +6.4806239844e+02 +6.9250130557e+01 -6.8936484288e+01 6.5538743635e+02 0.0000000000e+00 0.0000e+00 -1.0000e+00
</event>
<event>
 6      1 +1.4834189e-01 1.01211600e+04 7.81653100e-03 6.93146100e-02
  1000022 -1    0    0    0    0 +0.0000000000e+00 +0.0000000000e+00 +4.4721471353e+01 1.0000100000e+04 1.0000000000e+04 0.0000e+00 -1.0000e+00
  1000022 -1    0    0    0    0 -0.0000000000e+00 -0.0000000000e+00 -4.4721471353e+01 1.0000100000e+04 1.0000000000e+04 0.0000e+00 -1.0000e+00
      -24  1    1    2    0    0 -6.1444740334e+03 -2.2021721877e+03 -1.6633451118e+03 6.7362610640e+03 7.9829010000e+01 0.0000e+00 -1.0000e+00
       24  1    1    2    0    0 +8.1008526683e+03 +4.4193626099e+03 +3.2264952301e+03 9.7760535991e+03 7.9829010000e+01 0.0000e+00 -1.0000e+00
       22  1    1    2    0    0 +8.0652113479e+01 -4.4776027993e+01 +4.5784856803e+01 1.0298499504e+02 0.0000000000e+00 0.0000e+00 -1.0000e+00
       22  1    1    2    0    0 -2.0370307484e+03 -2.1724143943e+03 -1.6089349751e+03 3.3849003419e+03 0.0000000000e+00 0.0000e+00 -1.0000e+00
</event>
<event>
 6      1 +1.4834189e-01 1.00405800e+04 7.81653100e-03 6.93628100e-02
  1000022 -1    0    0    0    0 +0.0000000000e+00 +0.0000000000e+00 +4.4721471353e+01 1.0000100000e+04 1.0000000000e+04 0.0000e+00 -1.0000e+00
  1000022 -1    0    0    0    0 -0.0000000000e+00 -0.0000000000e+00 -4.4721471353e+01 1.0000100000e+04 1.0000000000e+04 0.0000e+00 -1.0000e+00
      -24  1    1    2    0    0 +4.6825006551e+03 +6.0909208397e+03 -4.5628950355e+03 8.9359673699e+03 7.9829010000e+01 0.0000e+00 -1.0000e+00
       24  1    1    2    0    0 -4.8045701572e+02 -6.6744968454e+02 +5.5976761589e+02 9.9801827637e+02 7.9829010000e+01 0.0000e+00 -1.0000e+00
       22  1    1    2    0    0 -5.0462597399e+03 -6.1136205663e+03 +4.1796279209e+03 8.9616060697e+03 0.0000000000e+00 0.0000e+00 -1.0000e+00
       22  1    1    2    0    0 +8.4421610052e+02 +6.9014941115e+02 -1.7650050125e+02 1.1046082840e+03 0.0000000000e+00 0.0000e+00 1.0000e+00
</event>
<event>
 6      1 +1.4834189e-01 1.00022100e+04 7.81653100e-03 6.93859200e-02
  1000022 -1    0    0    0    0 +0.0000000000e+00 +0.0000000000e+00 +4.4721471353e+01 1.0000100000e+04 1.0000000000e+04 0.0000e+00 -1.0000e+00
  1000022 -1    0    0    0    0 -0.0000000000e+00 -0.0000000000e+00 -4.4721471353e+01 1.0000100000e+04 1.0000000000e+04 0.0000e+00 -1.0000e+00
      -24  1    1    2    0    0 -1.7892729892e+03 -2.5857849964e+03 +9.4902884896e+03 9.9979863054e+03 7.9829010000e+01 0.0000e+00 1.0000e+00
       24  1    1    2    0    0 +5.7499863574e+02 +7.3579784569e+02 -2.8011874209e+03 2.9538188060e+03 7.9829010000e+01 0.0000e+00 1.0000e+00
       22  1    1    2    0    0 +1.1585389422e+00 +3.5292312040e+01 -1.6753564063e+02 1.7121647228e+02 0.0000000000e+00 0.0000e+00 -1.0000e+00
       22  1    1    2    0    0 +1.2131158146e+03 +1.8146948387e+03 -6.5215654281e+03 6.8771784163e+03 0.0000000000e+00 0.0000e+00 1.0000e+00
</event>
<event>
 6      1 +1.4834189e-01 1.00022500e+04 7.81653100e-03 6.93859000e-02
  1000022 -1    0    0    0    0 +0.0000000000e+00 +0.0000000000e+00 +4.4721471353e+01 1.0000100000e+04 1.0000000000e+04 0.0000e+00 -1.0000e+00
  1000022 -1    0    0    0    0 -0.0000000000e+00 -0.0000000000e+00 -4.4721471353e+01 1.0000100000e+04 1.0000000000e+04 0.0000e+00 -1.0000e+00
      -24  1    1    2    0    0 -1.5107769127e+03 -8.2887285266e+03 -2.4004333120e+03 8.7609314701e+03 7.9829010000e+01 0.0000e+00 -1.0000e+00
       24  1    1    2    0    0 +1.8248356784e+03 +9.2863228269e+03 +2.6569570184e+03 9.8301378509e+03 7.9829010000e+01 0.0000e+00 -1.0000e+00
       22  1    1    2    0    0 -3.3518765720e+02 -1.1517262943e+03 -3.1944050395e+02 1.2413164214e+03 0.0000000000e+00 0.0000e+00 -1.0000e+00
       22  1    1    2    0    0 +2.1128891512e+01 +1.5413199402e+02 +6.2916797531e+01 1.6781425759e+02 0.0000000000e+00 0.0000e+00 1.0000e+00
</event>
<event>
 6      1 +1.4834189e-01 1.01228700e+04 7.81653100e-03 6.93135900e-02
  1000022 -1    0    0    0    0 +0.0000000000e+00 +0.0000000000e+00 +4.4721471353e+01 1.0000100000e+04 1.0000000000e+04 0.0000e+00 -1.0000e+00
  1000022 -1    0    0    0    0 -0.0000000000e+00 -0.0000000000e+00 -4.4721471353e+01 1.0000100000e+04 1.0000000000e+04 0.0000e+00 -1.0000e+00
      -24  1    1    2    0    0 +1.5126217288e+02 +2.5984773779e+02 +3.4068354580e+02 4.6134481789e+02 7.9829010000e+01 0.0000e+00 -1.0000e+00
       24  1    1    2    0    0 -4.3609699845e+03 -2.5377223772e+03 -1.6504733297e+03 5.3092870475e+03 7.9829010000e+01 0.0000e+00 1.0000e+00
       22  1    1    2    0    0 -4.6552773030e+03 +3.1398185985e+02 -1.1833849786e+03 4.8135840476e+03 0.0000000000e+00 0.0000e+00 1.0000e+00
       22  1    1    2    0    0 +8.8649851146e+03 +1.9638927796e+03 +2.4931747624e+03 9.4159840871e+03 0.0000000000e+00 0.0000e+00 1.0000e+00
</event>
<event>
 6      1 +1.4834189e-01 1.00046100e+04 7.81653100e-03 6.93844700e-02
  1000022 -1    0    0    0    0 +0.0000000000e+00 +0.0000000000e+00 +4.4721471353e+01 1.0000100000e+04 1.0000000000e+04 0.0000e+00 -1.0000e+00
  1000022 -1    0    0    0    0 -0.0000000000e+00 -0.0000000000e+00 -4.4721471353e+01 1.0000100000e+04 1.0000000000e+04 0.0000e+00 -1.0000e+00
      -24  1    1    2    0    0 +1.2174640849e+03 +1.2589112996e+03 -1.2099896887e+03 2.1301465151e+03 7.9829010000e+01 0.0000e+00 1.0000e+00
       24  1    1    2    0    0 -4.1360707320e+03 -5.0918844704e+03 +4.8859085898e+03 8.1800271380e+03 7.9829010000e+01 0.0000e+00 1.0000e+00
       22  1    1    2    0    0 -8.2928568207e+02 -1.1970435591e+03 +1.0842703941e+03 1.8155633595e+03 0.0000000000e+00 0.0000e+00 1.0000e+00
       22  1    1    2    0    0 +3.7478923293e+03 +5.0300167299e+03 -4.7601892951e+03 7.8744629874e+03 0.0000000000e+00 0.0000e+00 1.0000e+00
</event>
<event>
 6      1 +1.4834189e-01 1.05420400e+04 7.81653100e-03 6.90699900e-02
  1000022 -1    0    0    0    0 +0.0000000000e+00 +0.0000000000e+00 +4.4721471353e+01 1.0000100000e+04 1.0000000000e+04 0.0000e+00 1.0000e+00
  1000022 -1    0    0    0    0 -0.0000000000e+00 -0.0000000000e+00 -4.4721471353e+01 1.0000100000e+04 1.0000000000e+04 0.0000e+00 1.0000e+00
      -24  1    1    2    0    0 -1.7745714433e+03 -7.6577228504e+03 -2.7013120096e+03 8.3122369014e+03 7.9829010000e+01 0.0000e+00 1.0000e+00
       24  1    1    2    0    0 +2.3896120990e+03 +9.0780361229e+03 +1.1530132250e+03 9.4581603919e+03 7.9829010000e+01 0.0000e+00 1.0000e+00
       22  1    1    2    0    0 -6.0442408290e+02 -1.3619985805e+03 +1.5719701632e+03 2.1659775620e+03 0.0000000000e+00 0.0000e+00 1.0000e+00
       22  1    1    2    0    0 -1.0616572808e+01 -5.8314691985e+01 -2.3671378659e+01 6.3825144630e+01 0.0000000000e+00 0.0000e+00 1.0000e+00
</event>
<event>
 6      1 +1.4834189e-01 1.00939200e+04 7.81653100e-03 6.93308500e-02
  1000022 -1    0    0    0    0 +0.0000000000e+00 +0.0000000000e+00 +4.4721471353e+01 1.0000100000e+04 1.0000000000e+04 0.0000e+00 -1.0000e+00
  1000022 -1    0    0    0    0 -0.0000000000e+00 -0.0000000000e+00 -4.4721471353e+01 1.0000100000e+04 1.0000000000e+04 0.0000e+00 -1.0000e+00
      -24  1    1    2    0    0 -1.7975479954e+02 -2.9591778368e+02 -3.3869673685e+02 4.9088417478e+02 7.9829010000e+01 0.0000e+00 1.0000e+00
       24  1    1    2    0    0 +1.6468164023e+02 +9.7696374677e+03 -1.1057428838e+03 9.8337163010e+03 7.9829010000e+01 0.0000e+00 1.0000e+00
       22  1    1    2    0    0 -5.4269801269e+01 -9.4944279283e+03 +1.4391959780e+03 9.6030407663e+03 0.0000000000e+00 0.0000e+00 1.0000e+00
       22  1    1    2    0    0 +6.9342960577e+01 +2.0708244294e+01 +5.2436425703e+00 7.2558757919e+01 0.0000000000e+00 0.0000e+00 -1.0000e+00
</event>
<event>
 6      1 +1.4834189e-01 1.06172300e+04 7.81653100e-03 6.90275000e-02
  1000022 -1    0    0    0    0 +0.0000000000e+00 +0.0000000000e+00 +4.4721471353e+01 1.0000100000e+04 1.0000000000e+04 0.0000e+00 -1.0000e+00
  1000022 -1    0    0    0    0 -0.0000000000e+00 -0.0000000000e+00 -4.4721471353e+01 1.0000100000e+04 1.0000000000e+04 0.0000e+00 -1.0000e+00
      -24  1    1    2    0    0 -4.7103055931e+03 -2.9309366209e+03 -6.6689123979e+03 8.6751445808e+03 7.9829010000e+01 0.0000e+00 -1.0000e+00
       24  1    1    2    0    0 +5.7981704413e+03 +1.6380305492e+03 +7.1924777428e+03 9.3829650589e+03 7.9829010000e+01 0.0000e+00 -1.0000e+00
       22  1    1    2    0    0 -9.2750792973e+02 +1.3861043797e+03 -3.8795170654e+02 1.7123267322e+03 0.0000000000e+00 0.0000e+00 -1.0000e+00
       22  1    1    2    0    0 -1.6035691843e+02 -9.3198307950e+01 -1.3561363835e+02 2.2976362811e+02 0.0000000000e+00 0.0000e+00 1.0000e+00
</event>
<event>
 6      1 +1.4834189e-01 1.01087500e+04 7.81653100e-03 6.93220000e-02
  1000022 -1    0    0    0    0 +0.0000000000e+00 +0.0000000000e+00 +4.4721471353e+01 1.0000100000e+04 1.0000000000e+04 0.0000e+00 -1.0000e+00
  1000022 -1    0    0    0    0 -0.0000000000e+00 -0.0000000000e+00 -4.4721471353e+01 1.0000100000e+04 1.0000000000e+04 0.0000e+00 -1.0000e+00
      -24  1    1    2    0    0 +3.9397557285e+03 -3.6873039061e+03 -1.7804821252e+02 5.3996258327e+03 7.9829010000e+01 0.0000e+00 1.0000e+00
       24  1    1    2    0    0 -7.2024021770e+03 +6.3602029762e+03 -1.5634197329e+03 9.7353702009e+03 7.9829010000e+01 0.0000e+00 1.0000e+00
       22  1    1    2    0    0 -1.0355505411e+02 +5.5290987895e+01 -1.0285704369e+02 1.5607791007e+02 0.0000000000e+00 0.0000e+00 1.0000e+00
       22  1    1    2    0    0 +3.3662015026e+03 -2.7281900580e+03 +1.8443249891e+03 4.7091260563e+03 0.0000000000e+00 0.0000e+00 1.0000e+00
</event>
<event>
 6      1 +1.4834189e-01 1.00021800e+04 7.81653100e-03 6.93859400e-02
  1000022 -1    0    0    0    0 +0.0000000000e+00 +0.0000000000e+00 +4.4721471353e+01 1.0000100000e+04 1.0000000000e+04 0.0000e+00 1.0000e+00
  1000022 -1    0    0    0    0 -0.0000000000e+00 -0.0000000000e+00 -4.4721471353e+01 1.0000100000e+04 1.0000000000e+04 0.0000e+00 1.0000e+00
      -24  1    1    2    0    0 +5.4127728573e+03 +7.3720404251e+03 +4.0047086436e+03 9.9844456043e+03 7.9829010000e+01 0.0000e+00 -1.0000e+00
       24  1    1    2    0    0 -4.8873048398e+03 -6.7653118078e+03 -3.5910454209e+03 9.0860977510e+03 7.9829010000e+01 0.0000e+00 -1.0000e+00
       22  1    1    2    0    0 -5.3040719434e+02 -6.1781306774e+02 -4.1974325493e+02 9.1608360893e+02 0.0000000000e+00 0.0000e+00 1.0000e+00
       22  1    1    2    0    0 +4.9391768833e+00 +1.1084450449e+01 +6.0800321816e+00 1.3573035820e+01 0.0000000000e+00 0.0000e+00 1.0000e+00
</event>
<event>
 6      1 +1.4834189e-01 1.00003400e+04 7.81653100e-03 6.93870500e-02
  1000022 -1    0    0    0    0 +0.0000000000e+00 +0.0000000000e+00 +4.4721471353e+01 1.0000100000e+04 1.0000000000e+04 0.0000e+00 -1.0000e+00
  1000022 -1    0    0    0    0 -0.0000000000e+00 -0.0000000000e+00 -4.4721471353e+01 1.0000100000e+04 1.0000000000e+04 0.0000e+00 -1.0000e+00
      -24  1    1    2    0    0 -2.9007349912e+02 -1.5804841947e+02 -1.1781629329e+02 3.5968776403e+02 7.9829010000e+01 0.0000e+00 1.0000e+00
       24  1    1    2    0    0 +6.9829359649e+03 +4.8818284375e+03 +5.0228181444e+03 9.8908401244e+03 7.9829010000e+01 0.0000e+00 1.0000e+00
       22  1    1    2    0    0 +5.1827295014e+01 +9.4155915729e+01 +1.8287979220e+01 1.0902226910e+02 0.0000000000e+00 0.0000e+00 1.0000e+00
       22  1    1    2    0    0 -6.7446897608e+03 -4.8179359338e+03 -4.9232898303e+03 9.6406498425e+03 0.0000000000e+00 0.0000e+00 1.0000e+00
</event>
<event>
 6      1 +1.4834189e-01 1.00009700e+04 7.81653100e-03 6.93866700e-02
  1000022 -1    0    0    0    0 +0.0000000000e+00 +0.0000000000e+00 +4.4721471353e+01 1.0000100000e+04 1.0000000000e+04 0.0000e+00 -1.0000e+00
  1000022 -1    0    0    0    0 -0.0000000000e+00 -0.0000000000e+00 -4.4721471353e+01 1.0000100000e+04 1.0000000000e+04 0.0000e+00 -1.0000e+00
      -24  1    1    2    0    0 +2.2458602931e+03 -1.9590245930e+03 -1.8789037904e+03 3.5239633846e+03 7.9829010000e+01 0.0000e+00 -1.0000e+00
       24  1    1    2    0    0 -6.1953340797e+03 +5.8782398912e+03 +5.1729547443e+03 9.9850739624e+03 7.9829010000e+01 0.0000e+00 -1.0000e+00
       22  1    1    2    0    0 +3.9548461064e+03 -3.9322996091e+03 -3.2936137269e+03 6.4770116043e+03 0.0000000000e+00 0.0000e+00 -1.0000e+00
       22  1    1    2    0    0 -5.3723197743e+00 +1.3084310804e+01 -4.3722701433e-01 1.4151048598e+01 0.0000000000e+00 0.0000e+00 -1.0000e+00
</event>
<event>
 6      1 +1.4834189e-01 9.62613200e+03 7.81653100e-03 6.96181100e-02
  1000022 -1    0    0    0    0 +0.0000000000e+00 +0.0000000000e+00 +4.4721471353e+01 1.0000100000e+04 1.0000000000e+04 0.0000e+00 1.0000e+00
  1000022 -1    0    0    0    0 -0.0000000000e+00 -0.0000000000e+00 -4.4721471353e+01 1.0000100000e+04 1.0000000000e+04 0.0000e+00 1.0000e+00
      -24  1    1    2    0    0 -1.1613732855e+02 +6.8481621603e+02 +2.9782906459e+02 7.5995786158e+02 7.9829010000e+01 0.0000e+00 1.0000e+00
       24  1    1    2    0    0 -3.2345318948e+02 +3.7665698605e+01 -4.5337486870e+02 5.6388129340e+02 7.9829010000e+01 0.0000e+00 1.0000e+00
       22  1    1    2    0    0 +7.5681434788e+03 -1.2372192660e+03 +5.7624728768e+03 9.5923720155e+03 0.0000000000e+00 0.0000e+00 1.0000e+00
       22  1    1    2    0    0 -7.1285529608e+03 +5.1473735133e+02 -5.6069270727e+03 9.0839888295e+03 0.0000000000e+00 0.0000e+00 1.0000e+00
</event>
<event>
 6      1 +1.4834189e-01 1.00002900e+04 7.81653100e-03 6.93870800e-02
  1000022 -1    0    0    0    0 +0.0000000000e+00 +0.0000000000e+00 +4.4721471353e+01 1.0000100000e+04 1.0000000000e+04 0.0000e+00 1.0000e+00
  1000022 -1    0    0    0    0 -0.0000000000e+00 -0.0000000000e+00 -4.4721471353e+01 1.0000100000e+04 1.0000000000e+04 0.0000e+00 1.0000e+00
      -24  1    1    2    0    0 +5.8598486793e+03 -6.3677574054e+03 -4.2733637442e+03 9.6516408594e+03 7.9829010000e+01 0.0000e+00 1.0000e+00
       24  1    1    2    0    0 -5.7800466340e+03 +6.2384390190e+03 +4.2075465053e+03 9.4887765676e+03 7.9829010000e+01 0.0000e+00 1.0000e+00
       22  1    1    2    0    0 -2.9895456331e+02 +3.4366513649e+02 +2.3190082256e+02 5.1113359160e+02 0.0000000000e+00 0.0000e+00 1.0000e+00
       22  1    1    2    0    0 +2.1915251802e+02 -2.1434675009e+02 -1.6608358367e+02 3.4864898135e+02 0.0000000000e+00 0.0000e+00 1.0000e+00
</event>
<event>
 6      1 +1.4834189e-01 8.76202500e+03 7.81653100e-03 7.01946800e-02
  1000022 -1    0    0    0    0 +0.0000000000e+00 +0.0000000000e+00 +4.4721471353e+01 1.0000100000e+04 1.0000000000e+04 0.0000e+00 1.0000e+00
  1000022 -1    0    0    0    0 -0.0000000000e+00 -0.0000000000e+00 -4.4721471353e+01 1.0000100000e+04 1.0000000000e+04 0.0000e+00 1.0000e+00
      -24  1    1    2    0    0 +1.6021024125e+01 +1.5048492565e+02 -1.6233798283e+02 2.3585732461e+02 7.9829010000e+01 0.0000e+00 1.0000e+00
       24  1    1    2    0    0 -4.4023136853e+02 +1.5591324570e+03 +1.7020700173e+03 2.3511938863e+03 7.9829010000e+01 0.0000e+00 -1.0000e+00
       22  1    1    2    0    0 +9.0779035808e+02 +3.1043691696e+03 -8.4098450266e+03 9.0103654003e+03 0.0000000000e+00 0.0000e+00 -1.0000e+00
       22  1    1    2    0    0 -4.8358001368e+02 -4.8139865523e+03 +6.8701129921e+03 8.4027833888e+03 0.0000000000e+00 0.0000e+00 -1.0000e+00
</event>
<event>
 6      1 +1.4834189e-01 1.00008300e+04 7.81653100e-03 6.93867600e-02
  1000022 -1    0    0    0    0 +0.0000000000e+00 +0.0000000000e+00 +4.4721471353e+01 1.0000100000e+04 1.0000000000e+04 0.0000e+00 1.0000e+00
  1000022 -1    0    0    0    0 -0.0000000000e+00 -0.0000000000e+00 -4.4721471353e+01 1.0000100000e+04 1.0000000000e+04 0.0000e+00 1.0000e+00
      -24  1    1    2    0    0 +6.0763079150e+03 -1.1937006272e+03 -7.5870698369e+03 9.7936939122e+03 7.9829010000e+01 0.0000e+00 1.0000e+00
       24  1    1    2    0    0 -6.2049505048e+03 +1.2160837672e+03 +7.7290972765e+03 9.9862699681e+03 7.9829010000e+01 0.0000e+00 1.0000e+00
       22  1    1    2    0    0 +1.3627462925e+02 -3.1040061082e+01 -1.5089771955e+02 2.0568029010e+02 0.0000000000e+00 0.0000e+00 -1.0000e+00
       22  1    1    2    0    0 -7.6320394879e+00 +8.6569210394e+00 +8.8702799036e+00 1.4555829560e+01 0.0000000000e+00 0.0000e+00 1.0000e+00
</event>
<event>
 6      1 +1.4834189e-01 1.00026200e+04 7.81653100e-03 6.93856700e-02
  1000022 -1    0    0    0    0 +0.0000000000e+00 +0.0000000000e+00 +4.4721471353e+01 1.0000100000e+04 1.0000000000e+04 0.0000e+00 -1.0000e+00
  1000022 -1    0    0    0    0 -0.0000000000e+00 -0.0000000000e+00 -4.4721471353e+01 1.0000100000e+04 1.0000000000e+04 0.0000e+00 -1.0000e+00
      -24  1    1    2    0    0 +9.8513659722e+03 -1.0517566657e+03 +1.5787645738e+02 9.9089303787e+03 7.9829010000e+01 0.0000e+00 -1.0000e+00
       24  1    1    2    0    0 -7.1912392530e+02 -1.0424332485e+02 +5.4755049604e+01 7.3305980453e+02 7.9829010000e+01 0.0000e+00 1.0000e+00
       22  1    1    2    0    0 +5.9723894194e+01 +7.3880306537e+00 -7.1803621997e+01 9.3687174504e+01 0.0000000000e+00 0.0000e+00 -1.0000e+00
       22  1    1    2    0    0 -9.1919659411e+03 +1.1486119599e+03 -1.4082788498e+02 9.2645226423e+03 0.0000000000e+00 0.0000e+00 -1.0000e+00
</event>
<event>
 6      1 +1.4834189e-01 8.30434000e+03 7.81653100e-03 7.05279100e-02
  1000022 -1    0    0    0    0 +0.0000000000e+00 +0.0000000000e+00 +4.4721471353e+01 1.0000100000e+04 1.0000000000e+04 0.0000e+00 1.0000e+00
  1000022 -1    0    0    0    0 -0.0000000000e+00 -0.0000000000e+00 -4.4721471353e+01 1.0000100000e+04 1.0000000000e+04 0.0000e+00 1.0000e+00
      -24  1    1    2    0    0 +6.5118432541e+02 -2.4090634475e+03 +5.7860924664e+01 2.4974683736e+03 7.9829010000e+01 0.0000e+00 1.0000e+00
       24  1    1    2    0    0 -2.9057613588e+03 +5.7602116876e+03 +6.6899210896e+03 9.2943479931e+03 7.9829010000e+01 0.0000e+00 1.0000e+00
       22  1    1    2    0    0 +1.2913484523e+02 -5.9314391022e+02 +9.0903173478e+00 6.0710636659e+02 0.0000000000e+00 0.0000e+00 1.0000e+00
       22  1    1    2    0    0 +2.1254421882e+03 -2.7580043299e+03 -6.7568723316e+03 7.6012772667e+03 0.0000000000e+00 0.0000e+00 1.0000e+00
</event>
<event>
 6      1 +1.4834189e-01 8.44965600e+03 7.81653100e-03 7.04198100e-02
  1000022 -1    0    0    0    0 +0.0000000000e+00 +0.0000000000e+00 +4.4721471353e+01 1.0000100000e+04 1.0000000000e+04 0.0000e+00 1.0000e+00
  1000022 -1    0    0    0    0 -0.0000000000e+00 -0.0000000000e+00 -4.4721471353e+01 1.0000100000e+04 1.0000000000e+04 0.0000e+00 1.0000e+00
      -24  1    1    2    0    0 -7.4661600333e+02 +3.6265406456e+02 -1.9288499694e+01 8.3408521389e+02 7.9829010000e+01 0.0000e+00 0.0000e+00
       24  1    1    2    0    0 -3.9435570062e+03 -4.9023795078e+03 -3.9861722768e+03 7.4485507846e+03 7.9829010000e+01 0.0000e+00 1.0000e+00
       22  1    1    2    0    0 -1.5432766288e+03 -6.7974707979e+02 -1.1946798569e+03 2.0666443346e+03 0.0000000000e+00 0.0000e+00 -1.0000e+00
       22  1    1    2    0    0 +6.2334496383e+03 +5.2194725230e+03 +5.2001406333e+03 9.6509196669e+03 0.0000000000e+00 0.0000e+00 1.0000e+00
</event>
<event>
 6      1 +1.4834189e-01 1.00251800e+04 7.81653100e-03 6.93720700e-02
  1000022 -1    0    0    0    0 +0.0000000000e+00 +0.0000000000e+00 +4.4721471353e+01 1.0000100000e+04 1.0000000000e+04 0.0000e+00 1.0000e+00
  1000022 -1    0    0    0    0 -0.0000000000e+00 -0.0000000000e+00 -4.4721471353e+01 1.0000100000e+04 1.0000000000e+04 0.0000e+00 1.0000e+00
      -24  1    1    2    0    0 +9.2859974505e+03 -2.9972681807e+03 -1.4332528148e+03 9.8627557761e+03 7.9829010000e+01 0.0000e+00 1.0000e+00
       24  1    1    2    0    0 -2.2555518020e+02 +2.3771953606e+02 +5.8749459743e+01 3.4235929518e+02 7.9829010000e+01 0.0000e+00 0.0000e+00
       22  1    1    2    0    0 +1.0681032906e+02 -3.1592090468e+01 -1.4029462452e+01 1.1226456427e+02 0.0000000000e+00 0.0000e+00 -1.0000e+00
       22  1    1    2    0    0 -9.1672525994e+03 +2.7911407351e+03 +1.3885328175e+03 9.6828203644e+03 0.0000000000e+00 0.0000e+00 1.0000e+00
</event>
<event>
 6      1 +1.4834189e-01 1.00329400e+04 7.81653100e-03 6.93674000e-02
  1000022 -1    0    0    0    0 +0.0000000000e+00 +0.0000000000e+00 +4.4721471353e+01 1.0000100000e+04 1.0000000000e+04 0.0000e+00 -1.0000e+00
  1000022 -1    0    0    0    0 -0.0000000000e+00 -0.0000000000e+00 -4.4721471353e+01 1.0000100000e+04 1.0000000000e+04 0.0000e+00 -1.0000e+00
      -24  1    1    2    0    0 +5.1878656286e+03 -1.2383797693e+03 -6.9813500209e+03 8.7859635225e+03 7.9829010000e+01 0.0000e+00 1.0000e+00
       24  1    1    2    0    0 -6.0058235755e+03 +1.7818403338e+03 +7.6049907886e+03 9.8532801321e+03 7.9829010000e+01 0.0000e+00 1.0000e+00
       22  1    1    2    0    0 +9.2993777861e+02 -5.6145288900e+02 -6.1232144988e+02 1.2469768148e+03 0.0000000000e+00 0.0000e+00 1.0000e+00
       22  1    1    2    0    0 -1.1197983169e+02 +1.7992324499e+01 -1.1319317781e+01 1.1397953062e+02 0.0000000000e+00 0.0000e+00 -1.0000e+00
</event>
<event>
 6      1 +1.4834189e-01 1.01698300e+04 7.81653100e-03 6.92857200e-02
  1000022 -1    0    0    0    0 +0.0000000000e+00 +0.0000000000e+00 +4.4721471353e+01 1.0000100000e+04 1.0000000000e+04 0.0000e+00 1.0000e+00
  1000022 -1    0    0    0    0 -0.0000000000e+00 -0.0000000000e+00 -4.4721471353e+01 1.0000100000e+04 1.0000000000e+04 0.0000e+00 1.0000e+00
      -24  1    1    2    0    0 +5.3031815024e+03 +6.6570213100e+03 -4.8815948222e+03 9.8120338079e+03 7.9829010000e+01 0.0000e+00 1.0000e+00
       24  1    1    2    0    0 -5.4307962019e+03 -6.7122552427e+03 +4.4553184505e+03 9.7161799591e+03 7.9829010000e+01 0.0000e+00 1.0000e+00
       22  1    1    2    0    0 +9.5369840780e+00 +1.2351861035e+01 -9.6312606618e+00 1.8338040197e+01 0.0000000000e+00 0.0000e+00 1.0000e+00
       22  1    1    2    0    0 +1.1807771541e+02 +4.2882071732e+01 +4.3590763228e+02 4.5364819280e+02 0.0000000000e+00 0.0000e+00 1.0000e+00
</event>
<event>
 6      1 +1.4834189e-01 9.19649400e+03 7.81653100e-03 6.98968000e-02
  1000022 -1    0    0    0    0 +0.0000000000e+00 +0.0000000000e+00 +4.4721471353e+01 1.0000100000e+04 1.0000000000e+04 0.0000e+00 1.0000e+00
  1000022 -1    0    0    0    0 -0.0000000000e+00 -0.0000000000e+00 -4.4721471353e+01 1.0000100000e+04 1.0000000000e+04 0.0000e+00 1.0000e+00
      -24  1    1    2    0    0 +5.9957530345e+02 -1.2903748198e+03 +5.9292775145e+02 1.5435328663e+03 7.9829010000e+01 0.0000e+00 -1.0000e+00
       24  1    1    2    0    0 -8.4532852908e+03 +1.5140088081e+03 -1.2279878830e+03 8.6755162262e+03 7.9829010000e+01 0.0000e+00 1.0000e+00
       22  1    1    2    0    0 -9.3471953663e+02 +1.4525190222e+02 -1.1577067902e+02 9.5299610564e+02 0.0000000000e+00 0.0000e+00 1.0000e+00
       22  1    1    2    0    0 +8.7884295240e+03 -3.6888589047e+02 +7.5083081055e+02 8.8281548018e+03 0.0000000000e+00 0.0000e+00 1.0000e+00
</event>
<event>
 6      1 +1.4834189e-01 1.00944300e+04 7.81653100e-03 6.93305500e-02
  1000022 -1    0    0    0    0 +0.0000000000e+00 +0.0000000000e+00 +4.4721471353e+01 1.0000100000e+04 1.0000000000e+04 0.0000e+00 -1.0000e+00
  1000022 -1    0    0    0    0 -0.0000000000e+00 -0.0000000000e+00 -4.4721471353e+01 1.0000100000e+04 1.0000000000e+04 0.0000e+00 -1.0000e+00
      -24  1    1    2    0    0 +4.8422071068e+03 -3.8897578749e+03 +7.7162676515e+03 9.9057733232e+03 7.9829010000e+01 0.0000e+00 -1.0000e+00
       24  1    1    2    0    0 -4.4087724553e+03 +3.4229593141e+03 -6.8364805136e+03 8.8259709671e+03 7.9829010000e+01 0.0000e+00 -1.0000e+00
       22  1    1    2    0    0 -3.4252438024e+02 +3.7360293221e+02 -9.8056488880e+02 1.1038159281e+03 0.0000000000e+00 0.0000e+00 -1.0000e+00
       22  1    1    2    0    0 -9.0910271312e+01 +9.3195628551e+01 +1.0077775088e+02 1.6463978160e+02 0.0000000000e+00 0.0000e+00 1.0000e+00
</event>
<event>
 6      1 +1.4834189e-01 1.02023200e+04 7.81653100e-03 6.92665200e-02
  1000022 -1    0    0    0    0 +0.0000000000e+00 +0.0000000000e+00 +4.4721471353e+01 1.0000100000e+04 1.0000000000e+04 0.0000e+00 -1.0000e+00
  1000022 -1    0    0    0    0 -0.0000000000e+00 -0.0000000000e+00 -4.4721471353e+01 1.0000100000e+04 1.0000000000e+04 0.0000e+00 -1.0000e+00
      -24  1    1    2    0    0 +7.8606004365e+03 -3.8676710232e+03 +4.2841848432e+03 9.7523602686e+03 7.9829010000e+01 0.0000e+00 -1.0000e+00
       24  1    1    2    0    0 -6.4273766481e+03 +3.2408919070e+03 -4.6590296984e+03 8.5748166938e+03 7.9829010000e+01 0.0000e+00 -1.0000e+00
       22  1    1    2    0    0 -1.4617991706e+03 +6.2977639605e+02 +3.3953608306e+02 1.6275011139e+03 0.0000000000e+00 0.0000e+00 -1.0000e+00
       22  1    1    2    0    0 +2.8575382155e+01 -2.9972797915e+00 +3.5308772145e+01 4.5521923749e+01 0.0000000000e+00 0.0000e+00 1.0000e+00
</event>
<event>
 6      1 +1.4834189e-01 1.04873300e+04 7.81653100e-03 6.91011400e-02
  1000022 -1    0    0    0    0 +0.0000000000e+00 +0.0000000000e+00 +4.4721471353e+01 1.0000100000e+04 1.0000000000e+04 0.0000e+00 -1.0000e+00
  1000022 -1    0    0    0    0 -0.0000000000e+00 -0.0000000000e+00 -4.4721471353e+01 1.0000100000e+04 1.0000000000e+04 0.0000e+00 -1.0000e+00
      -24  1    1    2    0    0 -8.8012454807e+02 +7.8758320514e+02 -5.1492558751e+02 1.2909018385e+03 7.9829010000e+01 0.0000e+00 0.0000e+00
       24  1    1    2    0    0 +6.4913086020e+03 -4.5253858674e+03 +5.2794130625e+03 9.5128744116e+03 7.9829010000e+01 0.0000e+00 1.0000e+00
       22  1    1    2    0    0 -1.0968631540e+03 -6.3721348538e+02 -1.9084639650e+03 2.2915899525e+03 0.0000000000e+00 0.0000e+00 1.0000e+00
       22  1    1    2    0    0 -4.5143209000e+03 +4.3750161477e+03 -2.8560235099e+03 6.9048337974e+03 0.0000000000e+00 0.0000e+00 1.0000e+00
</event>
<event>
 6      1 +1.4834189e-01 1.17205400e+04 7.81653100e-03 6.84418600e-02
  1000022 -1    0    0    0    0 +0.0000000000e+00 +0.0000000000e+00 +4.4721471353e+01 1.0000100000e+04 1.0000000000e+04 0.0000e+00 -1.0000e+00
  1000022 -1    0    0    0    0 -0.0000000000e+00 -0.0000000000e+00 -4.4721471353e+01 1.0000100000e+04 1.0000000000e+04 0.0000e+00 -1.0000e+00
      -24  1    1    2    0    0 -5.7579868054e+03 +9.8694582647e+02 +4.2940631641e+03 7.2507810092e+03 7.9829010000e+01 0.0000e+00 -1.0000e+00
       24  1    1    2    0    0 +6.1695443335e+03 -4.9818508230e+03 -2.3799876773e+03 8.2796635753e+03 7.9829010000e+01 0.0000e+00 -1.0000e+00
       22  1    1    2    0    0 -2.9862736309e+01 +6.9126254560e+00 -2.2333191819e+00 3.0733615556e+01 0.0000000000e+00 0.0000e+00 -1.0000e+00
       22  1    1    2    0    0 -3.8169479177e+02 +3.9879923711e+03 -1.9118421676e+03 4.4390217999e+03 0.0000000000e+00 0.0000e+00 -1.0000e+00
</event>
<event>
 6      1 +1.4834189e-01 1.08031900e+04 7.81653100e-03 6.89239200e-02
  1000022 -1    0    0    0    0 +0.0000000000e+00 +0.0000000000e+00 +4.4721471353e+01 1.0000100000e+04 1.0000000000e+04 0.0000e+00 1.0000e+00
  1000022 -1    0    0    0    0 -0.0000000000e+00 -0.0000000000e+00 -4.4721471353e+01 1.0000100000e+04 1.0000000000e+04 0.0000e+00 1.0000e+00
      -24  1    1    2    0    0 +4.2368577753e+03 -6.0675181187e+03 +5.4601214829e+03 9.1970125154e+03 7.9829010000e+01 0.0000e+00 -1.0000e+00
       24  1    1    2    0    0 -4.8603348725e+03 +4.4555662157e+03 -4.5406875708e+03 8.0061939561e+03 7.9829010000e+01 0.0000e+00 -1.0000e+00
       22  1    1    2    0    0 +1.3218250624e+03 +1.1263127713e+03 -3.4488178353e+02 1.7705212224e+03 0.0000000000e+00 0.0000e+00 -1.0000e+00
       22  1    1    2    0    0 -6.9834796518e+02 +4.8563913170e+02 -5.7455212854e+02 1.0264723061e+03 0.0000000000e+00 0.0000e+00 -1.0000e+00
</event>
<event>
 6      1 +1.4834189e-01 1.00433900e+04 7.81653100e-03 6.93611200e-02
  1000022 -1    0    0    0    0 +0.0000000000e+00 +0.0000000000e+00 +4.4721471353e+01 1.0000100000e+04 1.0000000000e+04 0.0000e+00 1.0000e+00
  1000022 -1    0    0    0    0 -0.0000000000e+00 -0.0000000000e+00 -4.4721471353e+01 1.0000100000e+04 1.0000000000e+04 0.0000e+00 1.0000e+00
      -24  1    1    2    0    0 +1.9609280063e+02 +3.5323991113e+02 -1.0730303235e+03 1.1493465827e+03 7.9829010000e+01 0.0000e+00 1.0000e+00
       24  1    1    2    0    0 -8.7425960344e+02 -9.6489848557e+02 +8.6477187339e+02 1.5651076658e+03 7.9829010000e+01 0.0000e+00 1.0000e+00
       22  1    1    2    0    0 +4.7531260358e+03 +4.5761208601e+03 -5.9641343749e+03 8.8940422801e+03 0.0000000000e+00 0.0000e+00 1.0000e+00
       22  1    1    2    0    0 -4.0749592330e+03 -3.9644622857e+03 +6.1723928250e+03 8.3917034714e+03 0.0000000000e+00 0.0000e+00 1.0000e+00
</event>
<event>
 6      1 +1.4834189e-01 1.00003200e+04 7.81653100e-03 6.93870600e-02
  1000022 -1    0    0    0    0 +0.0000000000e+00 +0.0000000000e+00 +4.4721471353e+01 1.0000100000e+04 1.0000000000e+04 0.0000e+00 1.0000e+00
  1000022 -1    0    0    0    0 -0.0000000000e+00 -0.0000000000e+00 -4.4721471353e+01 1.0000100000e+04 1.0000000000e+04 0.0000e+00 1.0000e+00
      -24  1    1    2    0    0 +2.2511742446e+03 -9.4456801573e+03 +1.5065821019e+03 9.8267401214e+03 7.9829010000e+01 0.0000e+00 1.0000e+00
       24  1    1    2    0    0 -2.2880864648e+03 +9.5861591548e+03 -1.5456551069e+03 9.9762322242e+03 7.9829010000e+01 0.0000e+00 1.0000e+00
       22  1    1    2    0    0 -6.7212812551e+00 +2.2645390181e+01 -1.1288168175e+00 2.3648753573e+01 0.0000000000e+00 0.0000e+00 1.0000e+00
       22  1    1    2    0    0 +4.3633501423e+01 -1.6312438774e+02 +4.0201821899e+01 1.7357890081e+02 0.0000000000e+00 0.0000e+00 -1.0000e+00
</event>
<event>
 6      1 +1.4834189e-01 1.01066100e+04 7.81653100e-03 6.93232800e-02
  1000022 -1    0    0    0    0 +0.0000000000e+00 +0.0000000000e+00 +4.4721471353e+01 1.0000100000e+04 1.0000000000e+04 0.0000e+00 -1.0000e+00
  1000022 -1    0    0    0    0 -0.0000000000e+00 -0.0000000000e+00 -4.4721471353e+01 1.0000100000e+04 1.0000000000e+04 0.0000e+00 -1.0000e+00
      -24  1    1    2    0    0 +4.2617466487e+03 -6.9099832704e+03 +5.6538778292e+03 9.8935868356e+03 7.9829010000e+01 0.0000e+00 -1.0000e+00
       24  1    1    2    0    0 -2.2088039541e+03 +2.0925765094e+03 -2.7883358002e+03 4.1278178934e+03 7.9829010000e+01 0.0000e+00 -1.0000e+00
       22  1    1    2    0    0 -6.5309757868e+01 +5.9957321731e+01 -7.4877496901e+01 1.1604690622e+02 0.0000000000e+00 0.0000e+00 -1.0000e+00
       22  1    1    2    0    0 -1.9876329367e+03 +4.7574494393e+03 -2.7906645321e+03 5.8627483648e+03 0.0000000000e+00 0.0000e+00 -1.0000e+00
</event>
<event>
 6      1 +1.4834189e-01 1.09225000e+04 7.81653100e-03 6.88585500e-02
  1000022 -1    0    0    0    0 +0.0000000000e+00 +0.0000000000e+00 +4.4721471353e+01 1.0000100000e+04 1.0000000000e+04 0.0000e+00 1.0000e+00
  1000022 -1    0    0    0    0 -0.0000000000e+00 -0.0000000000e+00 -4.4721471353e+01 1.0000100000e+04 1.0000000000e+04 0.0000e+00 1.0000e+00
      -24  1    1    2    0    0 +3.7324965971e+03 +8.7119021428e+02 +8.1696595292e+03 9.0244231245e+03 7.9829010000e+01 0.0000e+00 -1.0000e+00
       24  1    1    2    0    0 -4.4260868954e+03 +1.5331010813e+03 -4.9046883129e+03 6.7825499813e+03 7.9829010000e+01 0.0000e+00 -1.0000e+00
       22  1    1    2    0    0 +4.0973101685e+01 +1.4792068095e+01 +3.0676629430e+01 5.3279038405e+01 0.0000000000e+00 0.0000e+00 1.0000e+00
       22  1    1    2    0    0 +6.5261719662e+02 -2.4190833637e+03 -3.2956478457e+03 4.1399478558e+03 0.0000000000e+00 0.0000e+00 -1.0000e+00
</event>
<event>
 6      1 +1.4834189e-01 1.00189600e+04 7.81653100e-03 6.93758200e-02
  1000022 -1    0    0    0    0 +0.0000000000e+00 +0.0000000000e+00 +4.4721471353e+01 1.0000100000e+04 1.0000000000e+04 0.0000e+00 1.0000e+00
  1000022 -1    0    0    0    0 -0.0000000000e+00 -0.0000000000e+00 -4.4721471353e+01 1.0000100000e+04 1.0000000000e+04 0.0000e+00 1.0000e+00
      -24  1    1    2    0    0 +1.1224373298e+03 +9.9742611773e+02 -5.0767429887e+02 1.5870823180e+03 7.9829010000e+01 0.0000e+00 -1.0000e+00
       24  1    1    2    0    0 -6.0654534812e+03 -7.5897745534e+03 +2.1491311786e+03 9.9508563047e+03 7.9829010000e+01 0.0000e+00 -1.0000e+00
       22  1    1    2    0    0 -1.8102252127e+01 -2.4179142792e+01 +3.3372141276e+00 3.0388476045e+01 0.0000000000e+00 0.0000e+00 1.0000e+00
       22  1    1    2    0    0 +4.9611184036e+03 +6.6165275784e+03 -1.6447940939e+03 8.4318729012e+03 0.0000000000e+00 0.0000e+00 -1.0000e+00
</event>
<event>
 6      1 +1.4834189e-01 1.00246000e+04 7.81653100e-03 6.93724200e-02
  1000022 -1    0    0    0    0 +0.0000000000e+00 +0.0000000000e+00 +4.4721471353e+01 1.0000100000e+04 1.0000000000e+04 0.0000e+00 1.0000e+00
  1000022 -1    0    0    0    0 -0.0000000000e+00 -0.0000000000e+00 -4.4721471353e+01 1.0000100000e+04 1.0000000000e+04 0.0000e+00 1.0000e+00
      -24  1    1    2    0    0 +3.8464659397e+02 +6.2674078216e+02 -9.8718422415e+02 1.2335567978e+03 7.9829010000e+01 0.0000e+00 0.0000e+00
       24  1    1    2    0    0 -2.7449071065e+03 -5.5343025607e+03 +7.7758564157e+03 9.9314316957e+03 7.9829010000e+01 0.0000e+00 -1.0000e+00
       22  1    1    2    0    0 -4.5822038106e+01 +4.5927521664e+01 +6.6874390232e+01 9.3172852759e+01 0.0000000000e+00 0.0000e+00 1.0000e+00
       22  1    1    2    0    0 +2.4060825506e+03 +4.8616342569e+03 -6.8555465818e+03 8.7420386537e+03 0.0000000000e+00 0.0000e+00 -1.0000e+00
</event>
<event>
 6      1 +1.4834189e-01 1.00001200e+04 7.81653100e-03 6.93871800e-02
  1000022 -1    0    0    0    0 +0.0000000000e+00 +0.0000000000e+00 +4.4721471353e+01 1.0000100000e+04 1.0000000000e+04 0.0000e+00 1.0000e+00
  1000022 -1    0    0    0    0 -0.0000000000e+00 -0.0000000000e+00 -4.4721471353e+01 1.0000100000e+04 1.0000000000e+04 0.0000e+00 1.0000e+00
      -24  1    1    2    0    0 +3.4544691708e+03 +6.9434438191e+03 -5.9617053971e+03 9.7822836410e+03 7.9829010000e+01 0.0000e+00 1.0000e+00
       24  1    1    2    0    0 -3.2207029151e+03 -6.4780169683e+03 +5.5497858430e+03 9.1183401276e+03 7.9829010000e+01 0.0000e+00 1.0000e+00
       22  1    1    2    0    0 +7.5861613618e+01 +1.4913015257e+02 -1.3942939112e+02 2.1779656088e+02 0.0000000000e+00 0.0000e+00 1.0000e+00
       22  1    1    2    0    0 -3.0962786925e+02 -6.1455700342e+02 +5.5134894519e+02 8.8177967046e+02 0.0000000000e+00 0.0000e+00 1.0000e+00
</event>
<event>
 6      1 +1.4834189e-01 1.00017600e+04 7.81653100e-03 6.93861900e-02
  1000022 -1    0    0    0    0 +0.0000000000e+00 +0.0000000000e+00 +4.4721471353e+01 1.0000100000e+04 1.0000000000e+04 0.0000e+00 -1.0000e+00
  1000022 -1    0    0    0    0 -0.0000000000e+00 -0.0000000000e+00 -4.4721471353e+01 1.0000100000e+04 1.0000000000e+04 0.0000e+00 -1.0000e+00
      -24  1    1    2    0    0 -1.7256264875e+03 -8.9117069401e+03 -3.8422938225e+03 9.8572765940e+03 7.9829010000e+01 0.0000e+00 1.0000e+00
       24  1    1    2    0    0 +1.2417492935e+02 +1.0904272284e+03 +5.3431488522e+02 1.2232399687e+03 7.9829010000e+01 0.0000e+00 -1.0000e+00
       22  1    1    2    0    0 +1.6155170587e+03 +7.9340086561e+03 +3.3917672864e+03 8.7785234548e+03 0.0000000000e+00 0.0000e+00 1.0000e+00
       22  1    1    2    0    0 -1.4065500544e+01 -1.1272894441e+02 -8.3788349107e+01 1.4115998250e+02 0.0000000000e+00 0.0000e+00 1.0000e+00
</event>
<event>
 6      1 +1.4834189e-01 1.00014000e+04 7.81653100e-03 6.93864100e-02
  1000022 -1    0    0    0    0 +0.0000000000e+00 +0.0000000000e+00 +4.4721471353e+01 1.0000100000e+04 1.0000000000e+04 0.0000e+00 -1.0000e+00
  1000022 -1    0    0    0    0 -0.0000000000e+00 -0.0000000000e+00 -4.4721471353e+01 1.0000100000e+04 1.0000000000e+04 0.0000e+00 -1.0000e+00
      -24  1    1    2    0    0 -6.9026103402e+02 +2.1592325568e+03 -1.0321632957e+03 2.4920833191e+03 7.9829010000e+01 0.0000e+00 0.0000e+00
       24  1    1    2    0    0 +2.5973354899e+03 -8.4289000245e+03 +3.7018493226e+03 9.5656974836e+03 7.9829010000e+01 0.0000e+00 1.0000e+00
       22  1    1    2    0    0 -2.0269770608e+03 +6.6526694225e+03 -2.8325153507e+03 7.5093135280e+03 0.0000000000e+00 0.0000e+00 1.0000e+00
       22  1    1    2    0    0 +1.1990260491e+02 -3.8300195480e+02 +1.6282932388e+02 4.3310566928e+02 0.0000000000e+00 0.0000e+00 -1.0000e+00
</event>
<event>
 6      1 +1.4834189e-01 1.01542200e+04 7.81653100e-03 6.92949700e-02
  1000022 -1    0    0    0    0 +0.0000000000e+00 +0.0000000000e+00 +4.4721471353e+01 1.0000100000e+04 1.0000000000e+04 0.0000e+00 -1.0000e+00
  1000022 -1    0    0    0    0 -0.0000000000e+00 -0.0000000000e+00 -4.4721471353e+01 1.0000100000e+04 1.0000000000e+04 0.0000e+00 -1.0000e+00
      -24  1    1    2    0    0 +2.6494257575e+03 +8.2446030935e+03 +2.9557436216e+03 9.1507229245e+03 7.9829010000e+01 0.0000e+00 1.0000e+00
       24  1    1    2    0    0 -2.1279143730e+03 -5.5494501679e+03 -3.4458018229e+03 6.8705414356e+03 7.9829010000e+01 0.0000e+00 1.0000e+00
       22  1    1    2    0    0 -1.0214121126e+03 -3.1111980126e+03 +2.4430851166e+02 3.2836751402e+03 0.0000000000e+00 0.0000e+00 1.0000e+00
       22  1    1    2    0    0 +4.9990072812e+02 +4.1604508711e+02 +2.4574968963e+02 6.9526049969e+02 0.0000000000e+00 0.0000e+00 1.0000e+00
</event>
<event>
 6      1 +1.4834189e-01 1.01185100e+04 7.81653100e-03 6.93161900e-02
  1000022 -1    0    0    0    0 +0.0000000000e+00 +0.0000000000e+00 +4.4721471353e+01 1.0000100000e+04 1.0000000000e+04 0.0000e+00 1.0000e+00
  1000022 -1    0    0    0    0 -0.0000000000e+00 -0.0000000000e+00 -4.4721471353e+01 1.0000100000e+04 1.0000000000e+04 0.0000e+00 1.0000e+00
      -24  1    1    2    0    0 -4.4160022256e+03 -1.2440443699e+03 +6.9511171746e+03 8.3290530492e+03 7.9829010000e+01 0.0000e+00 1.0000e+00
       24  1    1    2    0    0 +5.1919647578e+03 +1.7380056631e+03 -8.1733894131e+03 9.8380805495e+03 7.9829010000e+01 0.0000e+00 1.0000e+00
       22  1    1    2    0    0 +6.5027428058e+01 -2.6547805766e+02 -6.2721885659e+01 2.8043038430e+02 0.0000000000e+00 0.0000e+00 1.0000e+00
       22  1    1    2    0    0 -8.4098996023e+02 -2.2848323559e+02 +1.2849941242e+03 1.5526360170e+03 0.0000000000e+00 0.0000e+00 1.0000e+00
</event>
<event>
 6      1 +1.4834189e-01 1.00056900e+04 7.81653100e-03 6.93838200e-02
  1000022 -1    0    0    0    0 +0.0000000000e+00 +0.0000000000e+00 +4.4721471353e+01 1.0000100000e+04 1.0000000000e+04 0.0000e+00 -1.0000e+00
  1000022 -1    0    0    0    0 -0.0000000000e+00 -0.0000000000e+00 -4.4721471353e+01 1.0000100000e+04 1.0000000000e+04 0.0000e+00 -1.0000e+00
      -24  1    1    2    0    0 +5.0560747123e+03 -2.6539383417e+03 -7.9061494643e+03 9.7529919635e+03 7.9829010000e+01 0.0000e+00 -1.0000e+00
       24  1    1    2    0    0 -5.1883013993e+03 +2.7806318176e+03 +8.0524226615e+03 9.9748818593e+03 7.9829010000e+01 0.0000e+00 -1.0000e+00
       22  1    1    2    0    0 +1.4771473592e+02 -1.3140046308e+02 -1.5738066936e+02 2.5269428168e+02 0.0000000000e+00 0.0000e+00 -1.0000e+00
       22  1    1    2    0    0 -1.5488048881e+01 +4.7069871437e+00 +1.1107472113e+01 1.9631895549e+01 0.0000000000e+00 0.0000e+00 1.0000e+00
</event>
<event>
 6      1 +1.4834189e-01 1.01002500e+04 7.81653100e-03 6.93270700e-02
  1000022 -1    0    0    0    0 +0.0000000000e+00 +0.0000000000e+00 +4.4721471353e+01 1.0000100000e+04 1.0000000000e+04 0.0000e+00 1.0000e+00
  1000022 -1    0    0    0    0 -0.0000000000e+00 -0.0000000000e+00 -4.4721471353e+01 1.0000100000e+04 1.0000000000e+04 0.0000e+00 1.0000e+00
      -24  1    1    2    0    0 -5.4582040583e+03 -2.7522490167e+03 +2.8385478056e+02 6.1199519932e+03 7.9829010000e+01 0.0000e+00 1.0000e+00
       24  1    1    2    0    0 +8.8601091065e+03 +3.8860647349e+03 -1.9378326789e+03 9.8673502353e+03 7.9829010000e+01 0.0000e+00 1.0000e+00
       22  1    1    2    0    0 +3.0816941630e+01 +9.3526304011e+00 -5.0489218818e+00 3.2598269878e+01 0.0000000000e+00 0.0000e+00 1.0000e+00
       22  1    1    2    0    0 -3.4327219899e+03 -1.1431683486e+03 +1.6590268202e+03 3.9802995017e+03 0.0000000000e+00 0.0000e+00 1.0000e+00
</event>
<event>
 6      1 +1.4834189e-01 1.00176500e+04 7.81653100e-03 6.93766100e-02
  1000022 -1    0    0    0    0 +0.0000000000e+00 +0.0000000000e+00 +4.4721471353e+01 1.0000100000e+04 1.0000000000e+04 0.0000e+00 -1.0000e+00
  1000022 -1    0    0    0    0 -0.0000000000e+00 -0.0000000000e+00 -4.4721471353e+01 1.0000100000e+04 1.0000000000e+04 0.0000e+00 -1.0000e+00
      -24  1    1    2    0    0 -5.7715689024e+02 -2.7798858852e+03 +8.4579921643e+02 2.9635493241e+03 7.9829010000e+01 0.0000e+00 1.0000e+00
       24  1    1    2    0    0 +1.7994065953e+03 +9.4810555325e+03 -2.5527799761e+03 9.9825515968e+03 7.9829010000e+01 0.0000e+00 -1.0000e+00
       22  1    1    2    0    0 -1.0614290246e+03 -6.3517640258e+03 +1.4808367336e+03 6.6079055113e+03 0.0000000000e+00 0.0000e+00 -1.0000e+00
       22  1    1    2    0    0 -1.6082068044e+02 -3.4940562139e+02 +2.2614402608e+02 4.4619356791e+02 0.0000000000e+00 0.0000e+00 -1.0000e+00
</event>
<event>
 6      1 +1.4834189e-01 1.00017500e+04 7.81653100e-03 6.93862000e-02
  1000022 -1    0    0    0    0 +0.0000000000e+00 +0.0000000000e+00 +4.4721471353e+01 1.0000100000e+04 1.0000000000e+04 0.0000e+00 1.0000e+00
  1000022 -1    0    0    0    0 -0.0000000000e+00 -0.0000000000e+00 -4.4721471353e+01 1.0000100000e+04 1.0000000000e+04 0.0000e+00 1.0000e+00
      -24  1    1    2    0    0 +2.0894012688e+03 +2.0009586345e+03 +1.4964060554e+03 3.2580725702e+03 7.9829010000e+01 0.0000e+00 -1.0000e+00
       24  1    1    2    0    0 -6.9013621572e+03 -4.2011061622e+03 -3.4904124246e+03 8.8015591900e+03 7.9829010000e+01 0.0000e+00 -1.0000e+00
       22  1    1    2    0    0 +5.4688968300e+03 +2.7487786664e+03 +2.8306545423e+03 6.7436801401e+03 0.0000000000e+00 0.0000e+00 -1.0000e+00
       22  1    1    2    0    0 -6.5693594152e+02 -5.4863113877e+02 -8.3664817314e+02 1.1968880997e+03 0.0000000000e+00 0.0000e+00 1.0000e+00
</event>
<event>
 6      1 +1.4834189e-01 1.00226000e+04 7.81653100e-03 6.93736200e-02
  1000022 -1    0    0    0    0 +0.0000000000e+00 +0.0000000000e+00 +4.4721471353e+01 1.0000100000e+04 1.0000000000e+04 0.0000e+00 -1.0000e+00
  1000022 -1    0    0    0    0 -0.0000000000e+00 -0.0000000000e+00 -4.4721471353e+01 1.0000100000e+04 1.0000000000e+04 0.0000e+00 -1.0000e+00
      -24  1    1    2    0    0 +1.1900024554e+03 +8.5898975904e+03 +4.9339277472e+03 9.9775980147e+03 7.9829010000e+01 0.0000e+00 1.0000e+00
       24  1    1    2    0    0 -1.1010714761e+02 -1.2205810365e+03 -7.4885132642e+02 1.4384340898e+03 7.9829010000e+01 0.0000e+00 1.0000e+00
       22  1    1    2    0    0 +2.1627381615e+01 -8.7564366136e+01 -1.7914004409e+02 2.0056524437e+02 0.0000000000e+00 0.0000e+00 1.0000e+00
       22  1    1    2    0    0 -1.1015226895e+03 -7.2817521877e+03 -4.0059363767e+03 8.3836026512e+03 0.0000000000e+00 0.0000e+00 1.0000e+00
</event>
<event>
 6      1 +1.4834189e-01 1.00133700e+04 7.81653100e-03 6.93791900e-02
  1000022 -1    0    0    0    0 +0.0000000000e+00 +0.0000000000e+00 +4.4721471353e+01 1.0000100000e+04 1.0000000000e+04 0.0000e+00 1.0000e+00
  1000022 -1    0    0    0    0 -0.0000000000e+00 -0.0000000000e+00 -4.4721471353e+01 1.0000100000e+04 1.0000000000e+04 0.0000e+00 1.0000e+00
      -24  1    1    2    0    0 -5.6616043734e+03 -6.8434083531e+03 -4.5379304633e+03 9.9742261619e+03 7.9829010000e+01 0.0000e+00 -1.0000e+00
       24  1    1    2    0    0 +1.5418197008e+03 +1.4065438808e+03 +9.5536761038e+02 2.2966657615e+03 7.9829010000e+01 0.0000e+00 -1.0000e+00
       22  1    1    2    0    0 -1.0191060009e+01 -6.4694385519e+00 -3.6422354375e+00 1.2608616826e+01 0.0000000000e+00 0.0000e+00 -1.0000e+00
       22  1    1    2    0    0 +4.1299757326e+03 +5.4433339108e+03 +3.5862050884e+03 7.7166994598e+03 0.0000000000e+00 0.0000e+00 -1.0000e+00
</event>
<event>
 6      1 +1.4834189e-01 1.06751400e+04 7.81653100e-03 6.89950100e-02
  1000022 -1    0    0    0    0 +0.0000000000e+00 +0.0000000000e+00 +4.4721471353e+01 1.0000100000e+04 1.0000000000e+04 0.0000e+00 -1.0000e+00
  1000022 -1    0    0    0    0 -0.0000000000e+00 -0.0000000000e+00 -4.4721471353e+01 1.0000100000e+04 1.0000000000e+04 0.0000e+00 -1.0000e+00
      -24  1    1    2    0    0 -2.9294913653e+03 +4.4415337582e+03 -6.4861008042e+03 8.3895779451e+03 7.9829010000e+01 0.0000e+00 1.0000e+00
       24  1    1    2    0    0 +1.3847598248e+03 -5.9843356839e+03 +7.0157303601e+03 9.3250564881e+03 7.9829010000e+01 0.0000e+00 1.0000e+00
       22  1    1    2    0    0 -2.6443733877e+01 +3.2485172321e+01 -2.4127771960e+01 4.8339495879e+01 0.0000000000e+00 0.0000e+00 1.0000e+00
       22  1    1    2    0    0 +1.5711752744e+03 +1.5103167535e+03 -5.0550178398e+02 2.2372260709e+03 0.0000000000e+00 0.0000e+00 1.0000e+00
</event>
<event>
 6      1 +1.4834189e-01 1.00468300e+04 7.81653100e-03 6.93590600e-02
  1000022 -1    0    0    0    0 +0.0000000000e+00 +0.0000000000e+00 +4.4721471353e+01 1.0000100000e+04 1.0000000000e+04 0.0000e+00 -1.0000e+00
  1000022 -1    0    0    0    0 -0.0000000000e+00 -0.0000000000e+00 -4.4721471353e+01 1.0000100000e+04 1.0000000000e+04 0.0000e+00 -1.0000e+00
      -24  1    1    2    0    0 -4.2287298429e+03 -7.1349564053e+03 +3.9977089806e+03 9.2074865600e+03 7.9829010000e+01 0.0000e+00 1.0000e+00
       24  1    1    2    0    0 -9.4210900762e+01 +1.3001015397e+02 -1.5390348857e+02 2.3629915064e+02 7.9829010000e+01 0.0000e+00 -1.0000e+00
       22  1    1    2    0    0 -4.1336439735e+02 -6.0302245737e+02 +1.4777550770e+02 7.4588458207e+02 0.0000000000e+00 0.0000e+00 -1.0000e+00
       22  1    1    2    0    0 +4.7363051410e+03 +7.6079687086e+03 -3.9915809997e+03 9.8105297073e+03 0.0000000000e+00 0.0000e+00 1.0000e+00
</event>
<event>
 6      1 +1.4834189e-01 1.00561200e+04 7.81653100e-03 6.93534800e-02
  1000022 -1    0    0    0    0 +0.0000000000e+00 +0.0000000000e+00 +4.4721471353e+01 1.0000100000e+04 1.0000000000e+04 0.0000e+00 1.0000e+00
  1000022 -1    0    0    0    0 -0.0000000000e+00 -0.0000000000e+00 -4.4721471353e+01 1.0000100000e+04 1.0000000000e+04 0.0000e+00 1.0000e+00
      -24  1    1    2    0    0 +7.5359589217e+03 -6.3928615769e+03 +2.8663492844e+02 9.8867531710e+03 7.9829010000e+01 0.0000e+00 1.0000e+00
       24  1    1    2    0    0 -6.3564639557e+03 +6.0451916547e+03 -2.6719379423e+02 8.7764879854e+03 7.9829010000e+01 0.0000e+00 1.0000e+00
       22  1    1    2    0    0 -1.2188090519e+03 +3.8903188533e+02 -2.4900918164e+01 1.2796332945e+03 0.0000000000e+00 0.0000e+00 -1.0000e+00
       22  1    1    2    0    0 +3.9314085875e+01 -4.1361963167e+01 +5.4597839538e+00 5.7325549156e+01 0.0000000000e+00 0.0000e+00 1.0000e+00
</event>
<event>
 6      1 +1.4834189e-01 1.00291100e+04 7.81653100e-03 6.93697100e-02
  1000022 -1    0    0    0    0 +0.0000000000e+00 +0.0000000000e+00 +4.4721471353e+01 1.0000100000e+04 1.0000000000e+04 0.0000e+00 1.0000e+00
  1000022 -1    0    0    0    0 -0.0000000000e+00 -0.0000000000e+00 -4.4721471353e+01 1.0000100000e+04 1.0000000000e+04 0.0000e+00 1.0000e+00
      -24  1    1    2    0    0 +4.3942310539e+02 +1.6691908140e+03 -3.4107255947e+02 1.7612477965e+03 7.9829010000e+01 0.0000e+00 1.0000e+00
       24  1    1    2    0    0 -3.0860019691e+03 -6.3744411435e+03 +2.4275914110e+03 7.4870876030e+03 7.9829010000e+01 0.0000e+00 -1.0000e+00
       22  1    1    2    0    0 +3.7189981744e+03 +6.8095925332e+03 -2.8558834187e+03 8.2678635687e+03 0.0000000000e+00 0.0000e+00 -1.0000e+00
       22  1    1    2    0    0 -1.0724193107e+03 -2.1043422037e+03 +7.6936456714e+02 2.4840010317e+03 0.0000000000e+00 0.0000e+00 -1.0000e+00
</event>
<event>
 6      1 +1.4834189e-01 9.61593100e+03 7.81653100e-03 6.96245600e-02
  1000022 -1    0    0    0    0 +0.0000000000e+00 +0.0000000000e+00 +4.4721471353e+01 1.0000100000e+04 1.0000000000e+04 0.0000e+00 1.0000e+00
  1000022 -1    0    0    0    0 -0.0000000000e+00 -0.0000000000e+00 -4.4721471353e+01 1.0000100000e+04 1.0000000000e+04 0.0000e+00 1.0000e+00
      -24  1    1    2    0    0 -1.2769362066e+02 -7.2531619061e+02 +4.2555275371e+02 8.5431671771e+02 7.9829010000e+01 0.0000e+00 1.0000e+00
       24  1    1    2    0    0 -1.9937034948e+03 +6.7970766167e+03 +2.9212213594e+03 7.6625720917e+03 7.9829010000e+01 0.0000e+00 1.0000e+00
       22  1    1    2    0    0 +3.3635678445e+03 -7.6988615985e+03 -4.0395117636e+03 9.3222161446e+03 0.0000000000e+00 0.0000e+00 1.0000e+00
       22  1    1    2    0    0 -1.2421707291e+03 +1.6271011724e+03 +6.9273765055e+02 2.1610950460e+03 0.0000000000e+00 0.0000e+00 1.0000e+00
</event>
<event>
 6      1 +1.4834189e-01 1.00397100e+04 7.81653100e-03 6.93633400e-02
  1000022 -1    0    0    0    0 +0.0000000000e+00 +0.0000000000e+00 +4.4721471353e+01 1.0000100000e+04 1.0000000000e+04 0.0000e+00 1.0000e+00
  1000022 -1    0    0    0    0 -0.0000000000e+00 -0.0000000000e+00 -4.4721471353e+01 1.0000100000e+04 1.0000000000e+04 0.0000e+00 1.0000e+00
      -24  1    1    2    0    0 +5.8257465638e+03 +3.8356581287e+03 +6.8989511359e+03 9.8108865936e+03 7.9829010000e+01 0.0000e+00 -1.0000e+00
       24  1    1    2    0    0 -5.9310861290e+03 -3.8222222478e+03 -7.0297876176e+03 9.9604945761e+03 7.9829010000e+01 0.0000e+00 -1.0000e+00
       22  1    1    2    0    0 +2.5247110528e+01 -7.6551112099e+01 +3.1751126116e+01 8.6635000798e+01 0.0000000000e+00 0.0000e+00 -1.0000e+00
       22  1    1    2    0    0 +8.0092454631e+01 +6.3115231162e+01 +9.9085355528e+01 1.4218382951e+02 0.0000000000e+00 0.0000e+00 -1.0000e+00
</event>
<event>
 6      1 +1.4834189e-01 1.03914300e+04 7.81653100e-03 6.91561900e-02
  1000022 -1    0    0    0    0 +0.0000000000e+00 +0.0000000000e+00 +4.4721471353e+01 1.0000100000e+04 1.0000000000e+04 0.0000e+00 -1.0000e+00
  1000022 -1    0    0    0    0 -0.0000000000e+00 -0.0000000000e+00 -4.4721471353e+01 1.0000100000e+04 1.0000000000e+04 0.0000e+00 -1.0000e+00
      -24  1    1    2    0    0 +3.7530828221e+03 -1.9384904808e+03 -2.3656723140e+03 4.8421229003e+03 7.9829010000e+01 0.0000e+00 -1.0000e+00
       24  1    1    2    0    0 -4.8378233686e+03 +3.3186730536e+03 +7.6094593654e+03 9.6087652842e+03 7.9829010000e+01 0.0000e+00 -1.0000e+00
       22  1    1    2    0    0 +9.1481646850e+01 -3.9602840670e+02 -9.4093799502e+02 1.0249740002e+03 0.0000000000e+00 0.0000e+00 1.0000e+00
       22  1    1    2    0    0 +9.9325889966e+02 -9.8415416615e+02 -4.3028490564e+03 4.5243378152e+03 0.0000000000e+00 0.0000e+00 -1.0000e+00
</event>
<event>
 6      1 +1.4834189e-01 1.03227600e+04 7.81653100e-03 6.91959800e-02
  1000022 -1    0    0    0    0 +0.0000000000e+00 +0.0000000000e+00 +4.4721471353e+01 1.0000100000e+04 1.0000000000e+04 0.0000e+00 -1.0000e+00
  1000022 -1    0    0    0    0 -0.0000000000e+00 -0.0000000000e+00 -4.4721471353e+01 1.0000100000e+04 1.0000000000e+04 0.0000e+00 -1.0000e+00
      -24  1    1    2    0    0 +7.4431404352e+01 +3.0066409710e+02 -1.2928536293e+00 3.1986446434e+02 7.9829010000e+01 0.0000e+00 -1.0000e+00
       24  1    1    2    0    0 -1.6531562852e+03 -9.4861343508e+03 -9.6271125366e+02 9.6774405839e+03 7.9829010000e+01 0.0000e+00 1.0000e+00
       22  1    1    2    0    0 +2.3063579774e+03 +3.3639493326e+03 +1.6579107106e+02 4.0820250993e+03 0.0000000000e+00 0.0000e+00 1.0000e+00
       22  1    1    2    0    0 -7.2763309657e+02 +5.8215209212e+03 +7.9821303622e+02 5.9208698525e+03 0.0000000000e+00 0.0000e+00 1.0000e+00
</event>
<event>
 6      1 +1.4834189e-01 1.00050800e+04 7.81653100e-03 6.93841900e-02
  1000022 -1    0    0    0    0 +0.0000000000e+00 +0.0000000000e+00 +4.4721471353e+01 1.0000100000e+04 1.0000000000e+04 0.0000e+00 -1.0000e+00
  1000022 -1    0    0    0    0 -0.0000000000e+00 -0.0000000000e+00 -4.4721471353e+01 1.0000100000e+04 1.0000000000e+04 0.0000e+00 -1.0000e+00
      -24  1    1    2    0    0 +3.6428010903e+03 -6.8469294087e+03 -6.1933679562e+03 9.9254532100e+03 7.9829010000e+01 0.0000e+00 -1.0000e+00
       24  1    1    2    0    0 -1.2153371121e+02 +2.4240984859e+02 +1.8248113736e+02 3.3645952800e+02 7.9829010000e+01 0.0000e+00 0.0000e+00
       22  1    1    2    0    0 -3.5520306409e+03 +6.6463788050e+03 +6.0573065322e+03 9.6686211695e+03 0.0000000000e+00 0.0000e+00 -1.0000e+00
       22  1    1    2    0    0 +3.0763261793e+01 -4.1859244881e+01 -4.6419713418e+01 6.9666092556e+01 0.0000000000e+00 0.0000e+00 -1.0000e+00
</event>
<event>
 6      1 +1.4834189e-01 1.02278700e+04 7.81653100e-03 6.92514700e-02
  1000022 -1    0    0    0    0 +0.0000000000e+00 +0.0000000000e+00 +4.4721471353e+01 1.0000100000e+04 1.0000000000e+04 0.0000e+00 -1.0000e+00
  1000022 -1    0    0    0    0 -0.0000000000e+00 -0.0000000000e+00 -4.4721471353e+01 1.0000100000e+04 1.0000000000e+04 0.0000e+00 -1.0000e+00
      -24  1    1    2    0    0 +5.8996908218e+02 -5.3475632510e+03 -3.4772958322e+03 6.4064385751e+03 7.9829010000e+01 0.0000e+00 1.0000e+00
       24  1    1    2    0    0 +1.0618915042e+03 +7.8786443847e+03 +4.4615030236e+03 9.1165801048e+03 7.9829010000e+01 0.0000e+00 1.0000e+00
       22  1    1    2    0    0 -1.8675324447e+03 -3.1209078232e+03 -1.1728692607e+03 3.8214349891e+03 0.0000000000e+00 0.0000e+00 1.0000e+00
       22  1    1    2    0    0 +2.1567185828e+02 +5.8982668956e+02 +1.8866206931e+02 6.5574633096e+02 0.0000000000e+00 0.0000e+00 -1.0000e+00
</event>
<event>
 6      1 +1.4834189e-01 1.00061100e+04 7.81653100e-03 6.93835600e-02
  1000022 -1    0    0    0    0 +0.0000000000e+00 +0.0000000000e+00 +4.4721471353e+01 1.0000100000e+04 1.0000000000e+04 0.0000e+00 -1.0000e+00
  1000022 -1    0    0    0    0 -0.0000000000e+00 -0.0000000000e+00 -4.4721471353e+01 1.0000100000e+04 1.0000000000e+04 0.0000e+00 -1.0000e+00
      -24  1    1    2    0    0 +1.3181448465e+03 -7.1862882513e+03 -6.7283230286e+03 9.9326204052e+03 7.9829010000e+01 0.0000e+00 -1.0000e+00
       24  1    1    2    0    0 -1.4118209187e+03 +7.0795240494e+03 +6.7370027567e+03 9.8745368442e+03 7.9829010000e+01 0.0000e+00 -1.0000e+00
       22  1    1    2    0    0 +5.1497578921e+01 +1.1588602165e+02 +3.5088693582e+01 1.3157806454e+02 0.0000000000e+00 0.0000e+00 1.0000e+00
       22  1    1    2    0    0 +4.2178493207e+01 -9.1218197608e+00 -4.3768421757e+01 6.1464686025e+01 0.0000000000e+00 0.0000e+00 -1.0000e+00
</event>
<event>
 6      1 +1.4834189e-01 1.00092800e+04 7.81653100e-03 6.93816500e-02
  1000022 -1    0    0    0    0 +0.0000000000e+00 +0.0000000000e+00 +4.4721471353e+01 1.0000100000e+04 1.0000000000e+04 0.0000e+00 1.0000e+00
  1000022 -1    0    0    0    0 -0.0000000000e+00 -0.0000000000e+00 -4.4721471353e+01 1.0000100000e+04 1.0000000000e+04 0.0000e+00 1.0000e+00
      -24  1    1    2    0    0 +3.8559945397e+03 -5.8284563336e+03 +6.9025856048e+03 9.8230167375e+03 7.9829010000e+01 0.0000e+00 -1.0000e+00
       24  1    1    2    0    0 -3.8411552875e+03 +5.9435508946e+03 -7.0312482440e+03 9.9762265270e+03 7.9829010000e+01 0.0000e+00 -1.0000e+00
       22  1    1    2    0    0 -9.2865558505e+00 -1.2581976951e+02 +1.3703044769e+02 1.8626378637e+02 0.0000000000e+00 0.0000e+00 -1.0000e+00
       22  1    1    2    0    0 -5.5526963876e+00 +1.0725208478e+01 -8.3678085183e+00 1.4692949107e+01 0.0000000000e+00 0.0000e+00 1.0000e+00
</event>
<event>
 6      1 +1.4834189e-01 1.01028300e+04 7.81653100e-03 6.93255400e-02
  1000022 -1    0    0    0    0 +0.0000000000e+00 +0.0000000000e+00 +4.4721471353e+01 1.0000100000e+04 1.0000000000e+04 0.0000e+00 -1.0000e+00
  1000022 -1    0    0    0    0 -0.0000000000e+00 -0.0000000000e+00 -4.4721471353e+01 1.0000100000e+04 1.0000000000e+04 0.0000e+00 -1.0000e+00
      -24  1    1    2    0    0 -1.9298617851e+03 +2.7183022450e+03 +9.3186948359e+03 9.8973723645e+03 7.9829010000e+01 0.0000e+00 1.0000e+00
       24  1    1    2    0    0 +1.5039257042e+03 -1.8962091834e+03 -7.2353746840e+03 7.6298375657e+03 7.9829010000e+01 0.0000e+00 1.0000e+00
       22  1    1    2    0    0 +4.6014775570e+02 -5.5484600417e+02 -2.0823275066e+03 2.2035602761e+03 0.0000000000e+00 0.0000e+00 1.0000e+00
       22  1    1    2    0    0 -3.4211674762e+01 -2.6724705742e+02 -9.9264534469e-01 2.6942979370e+02 0.0000000000e+00 0.0000e+00 -1.0000e+00
</event>
<event>
 6      1 +1.4834189e-01 1.00664700e+04 7.81653100e-03 6.93472800e-02
  1000022 -1    0    0    0    0 +0.0000000000e+00 +0.0000000000e+00 +4.4721471353e+01 1.0000100000e+04 1.0000000000e+04 0.0000e+00 1.0000e+00
  1000022 -1    0    0    0    0 -0.0000000000e+00 -0.0000000000e+00 -4.4721471353e+01 1.0000100000e+04 1.0000000000e+04 0.0000e+00 1.0000e+00
      -24  1    1    2    0    0 +5.3095321074e+01 +4.9810047056e+02 +3.9115277441e+02 6.4054379683e+02 7.9829010000e+01 0.0000e+00 0.0000e+00
       24  1    1    2    0    0 -9.0559492427e+02 -2.6365747128e+03 -9.3145021401e+03 9.7230628493e+03 7.9829010000e+01 0.0000e+00 1.0000e+00
       22  1    1    2    0    0 -1.7691944774e+01 -5.9291232962e+01 -2.0137767878e+02 2.1066899328e+02 0.0000000000e+00 0.0000e+00 -1.0000e+00
       22  1    1    2    0    0 +8.7019154797e+02 +2.1977654752e+03 +9.1247270445e+03 9.4259243605e+03 0.0000000000e+00 0.0000e+00 1.0000e+00
</event>
<event>
 6      1 +1.4834189e-01 1.01853500e+04 7.81653100e-03 6.92765400e-02
  1000022 -1    0    0    0    0 +0.0000000000e+00 +0.0000000000e+00 +4.4721471353e+01 1.0000100000e+04 1.0000000000e+04 0.0000e+00 -1.0000e+00
  1000022 -1    0    0    0    0 -0.0000000000e+00 -0.0000000000e+00 -4.4721471353e+01 1.0000100000e+04 1.0000000000e+04 0.0000e+00 -1.0000e+00
      -24  1    1    2    0    0 +4.3456027188e+03 +5.6985917106e+03 -5.7838349393e+03 9.2096324438e+03 7.9829010000e+01 0.0000e+00 1.0000e+00
       24  1    1    2    0    0 -4.9129762169e+03 -5.5986855727e+03 +5.3429710766e+03 9.1671330331e+03 7.9829010000e+01 0.0000e+00 1.0000e+00
       22  1    1    2    0    0 +2.7957309088e+02 +2.7485787502e+02 -4.6106856298e+02 6.0522077325e+02 0.0000000000e+00 0.0000e+00 1.0000e+00
       22  1    1    2    0    0 +2.8780040726e+02 -3.7476401288e+02 +9.0193242578e+02 1.0182137499e+03 0.0000000000e+00 0.0000e+00 -1.0000e+00
</event>
<event>
 6      1 +1.4834189e-01 6.85991200e+03 7.81653100e-03 7.17413100e-02
  1000022 -1    0    0    0    0 +0.0000000000e+00 +0.0000000000e+00 +4.4721471353e+01 1.0000100000e+04 1.0000000000e+04 0.0000e+00 1.0000e+00
  1000022 -1    0    0    0    0 -0.0000000000e+00 -0.0000000000e+00 -4.4721471353e+01 1.0000100000e+04 1.0000000000e+04 0.0000e+00 1.0000e+00
      -24  1    1    2    0    0 +3.7649581407e+03 +3.7264261829e+03 +4.8456373083e+02 5.3199940393e+03 7.9829010000e+01 0.0000e+00 1.0000e+00
       24  1    1    2    0    0 +1.1716471927e+03 -7.2479524080e+03 +9.4500126358e+02 7.4030379786e+03 7.9829010000e+01 0.0000e+00 1.0000e+00
       22  1    1    2    0    0 -1.0670044179e+02 -6.7881130371e+02 +1.0452923164e+02 6.9505117121e+02 0.0000000000e+00 0.0000e+00 1.0000e+00
       22  1    1    2    0    0 -4.8299048917e+03 +4.2003375288e+03 -1.5340942261e+03 6.5821168110e+03 0.0000000000e+00 0.0000e+00 1.0000e+00
</event>
<event>
 6      1 +1.4834189e-01 1.00201500e+04 7.81653100e-03 6.93751000e-02
  1000022 -1    0    0    0    0 +0.0000000000e+00 +0.0000000000e+00 +4.4721471353e+01 1.0000100000e+04 1.0000000000e+04 0.0000e+00 1.0000e+00
  1000022 -1    0    0    0    0 -0.0000000000e+00 -0.0000000000e+00 -4.4721471353e+01 1.0000100000e+04 1.0000000000e+04 0.0000e+00 1.0000e+00
      -24  1    1    2    0    0 +8.4480217381e+03 -2.1484535267e+03 +4.8590187041e+03 9.9800480601e+03 7.9829010000e+01 0.0000e+00 1.0000e+00
       24  1    1    2    0    0 -9.1146613707e+02 +1.1382715224e+02 -7.4384841856e+02 1.1846561865e+03 7.9829010000e+01 0.0000e+00 1.0000e+00
       22  1    1    2    0    0 -3.6491909934e+01 -2.0742257127e+01 -2.5062228012e+01 4.8887789828e+01 0.0000000000e+00 0.0000e+00 1.0000e+00
       22  1    1    2    0    0 -7.5000636911e+03 +2.0553686316e+03 -4.0901080576e+03 8.7866079635e+03 0.0000000000e+00 0.0000e+00 1.0000e+00
</event>
<event>
 6      1 +1.4834189e-01 1.00024900e+04 7.81653100e-03 6.93857500e-02
  1000022 -1    0    0    0    0 +0.0000000000e+00 +0.0000000000e+00 +4.4721471353e+01 1.0000100000e+04 1.0000000000e+04 0.0000e+00 -1.0000e+00
  1000022 -1    0    0    0    0 -0.0000000000e+00 -0.0000000000e+00 -4.4721471353e+01 1.0000100000e+04 1.0000000000e+04 0.0000e+00 -1.0000e+00
      -24  1    1    2    0    0 -5.8399527039e+02 -8.6645186705e+02 -1.5423079961e+02 1.0592209987e+03 7.9829010000e+01 0.0000e+00 0.0000e+00
       24  1    1    2    0    0 +4.9497355354e+03 +8.4160843623e+03 +1.3765494822e+03 9.8606094645e+03 7.9829010000e+01 0.0000e+00 1.0000e+00
       22  1    1    2    0    0 +7.2555222764e+01 +1.1448505167e+02 +2.0623447218e+01 1.3710001452e+02 0.0000000000e+00 0.0000e+00 -1.0000e+00
       22  1    1    2    0    0 -4.4382954878e+03 -7.6641175469e+03 -1.2429421298e+03 8.9432695223e+03 0.0000000000e+00 0.0000e+00 1.0000e+00
</event>
<event>
 6      1 +1.4834189e-01 1.00974300e+04 7.81653100e-03 6.93287600e-02
  1000022 -1    0    0    0    0 +0.0000000000e+00 +0.0000000000e+00 +4.4721471353e+01 1.0000100000e+04 1.0000000000e+04 0.0000e+00 -1.0000e+00
  1000022 -1    0    0    0    0 -0.0000000000e+00 -0.0000000000e+00 -4.4721471353e+01 1.0000100000e+04 1.0000000000e+04 0.0000e+00 -1.0000e+00
      -24  1    1    2    0    0 -1.4665292457e+03 +3.8959973910e+03 -8.5612171964e+03 9.5199956016e+03 7.9829010000e+01 0.0000e+00 1.0000e+00
       24  1    1    2    0    0 +9.9001467555e+02 -7.2230490685e+02 +1.3587223273e+03 1.8314891399e+03 7.9829010000e+01 0.0000e+00 1.0000e+00
       22  1    1    2    0    0 +5.3824864536e+02 -3.3185060399e+03 +7.5513976528e+03 8.2659421999e+03 0.0000000000e+00 0.0000e+00 1.0000e+00
       22  1    1    2    0    0 -6.1734075227e+01 +1.4481355572e+02 -3.4890278360e+02 3.8277305857e+02 0.0000000000e+00 0.0000e+00 1.0000e+00
</event>
<event>
 6      1 +1.4834189e-01 1.01716400e+04 7.81653100e-03 6.92846500e-02
  1000022 -1    0    0    0    0 +0.0000000000e+00 +0.0000000000e+00 +4.4721471353e+01 1.0000100000e+04 1.0000000000e+04 0.0000e+00 -1.0000e+00
  1000022 -1    0    0    0    0 -0.0000000000e+00 -0.0000000000e+00 -4.4721471353e+01 1.0000100000e+04 1.0000000000e+04 0.0000e+00 -1.0000e+00
      -24  1    1    2    0    0 -5.6979249293e+03 -7.5351392454e+03 +8.2219549206e+02 9.4829874009e+03 7.9829010000e+01 0.0000e+00 1.0000e+00
       24  1    1    2    0    0 +4.4792780488e+03 +5.9193492444e+03 -1.7695230706e+03 7.6315274935e+03 7.9829010000e+01 0.0000e+00 1.0000e+00
       22  1    1    2    0    0 -2.0228270216e+02 -2.7871440204e+02 +2.8641370436e+01 3.4557247806e+02 0.0000000000e+00 0.0000e+00 1.0000e+00
       22  1    1    2    0    0 +1.4209295826e+03 +1.8945044030e+03 +9.1868620807e+02 2.5401126275e+03 0.0000000000e+00 0.0000e+00 1.0000e+00
</event>
<event>
 6      1 +1.4834189e-01 1.00010800e+04 7.81653100e-03 6.93866000e-02
  1000022 -1    0    0    0    0 +0.0000000000e+00 +0.0000000000e+00 +4.4721471353e+01 1.0000100000e+04 1.0000000000e+04 0.0000e+00 1.0000e+00
  1000022 -1    0    0    0    0 -0.0000000000e+00 -0.0000000000e+00 -4.4721471353e+01 1.0000100000e+04 1.0000000000e+04 0.0000e+00 1.0000e+00
      -24  1    1    2    0    0 +7.0932569897e+03 +6.6288771802e+03 +1.2328661814e+03 9.7868605326e+03 7.9829010000e+01 0.0000e+00 1.0000e+00
       24  1    1    2    0    0 -7.2381762080e+03 -6.7656966198e+03 -1.2682344649e+03 9.9890258233e+03 7.9829010000e+01 0.0000e+00 1.0000e+00
       22  1    1    2    0    0 -8.0836326148e+00 -7.1931366838e+00 +5.3214253451e+00 1.2058353922e+01 0.0000000000e+00 0.0000e+00 1.0000e+00
       22  1    1    2    0    0 +1.5300285089e+02 +1.4401257637e+02 +3.0046858142e+01 2.1225529020e+02 0.0000000000e+00 0.0000e+00 1.0000e+00
</event>
<event>
 6      1 +1.4834189e-01 1.00002600e+04 7.81653100e-03 6.93871000e-02
  1000022 -1    0    0    0    0 +0.0000000000e+00 +0.0000000000e+00 +4.4721471353e+01 1.0000100000e+04 1.0000000000e+04 0.0000e+00 -1.0000e+00
  1000022 -1    0    0    0    0 -0.0000000000e+00 -0.0000000000e+00 -4.4721471353e+01 1.0000100000e+04 1.0000000000e+04 0.0000e+00 -1.0000e+00
      -24  1    1    2    0    0 -6.7324871264e+03 +4.3802291194e+03 +4.9443181424e+03 9.4321495222e+03 7.9829010000e+01 0.0000e+00 -1.0000e+00
       24  1    1    2    0    0 +3.5995406721e+03 -2.3345071910e+03 -2.5999780627e+03 5.0172577642e+03 7.9829010000e+01 0.0000e+00 1.0000e+00
       22  1    1    2    0    0 +3.5316308404e+03 -2.2987295051e+03 -2.6596528641e+03 4.9830038218e+03 0.0000000000e+00 0.0000e+00 -1.0000e+00
       22  1    1    2    0    0 -3.9868438610e+02 +2.5300757672e+02 +3.1531278445e+02 5.6778889178e+02 0.0000000000e+00 0.0000e+00 1.0000e+00
</event>
<event>
 6      1 +1.4834189e-01 9.94910100e+03 7.81653100e-03 6.94180800e-02
  1000022 -1    0    0    0    0 +0.0000000000e+00 +0.0000000000e+00 +4.4721471353e+01 1.0000100000e+04 1.0000000000e+04 0.0000e+00 -1.0000e+00
  1000022 -1    0    0    0    0 -0.0000000000e+00 -0.0000000000e+00 -4.4721471353e+01 1.0000100000e+04 1.0000000000e+04 0.0000e+00 -1.0000e+00
      -24  1    1    2    0    0 -5.8200802859e+01 +1.6255938662e+01 -2.0719653988e+01 1.0224267159e+02 7.9829010000e+01 0.0000e+00 1.0000e+00
       24  1    1    2    0    0 +8.0707415710e+01 -9.1701905110e+03 +3.8268230236e+03 9.9372961523e+03 7.9829010000e+01 0.0000e+00 -1.0000e+00
       22  1    1    2    0    0 +1.2312758291e+00 -2.1810710801e+01 +8.6533718705e+00 2.3496893210e+01 0.0000000000e+00 0.0000e+00 1.0000e+00
       22  1    1    2    0    0 -2.3737888680e+01 +9.1757452831e+03 -3.8147567415e+03 9.9371642829e+03 0.0000000000e+00 0.0000e+00 -1.0000e+00
</event>
<event>
 6      1 +1.4834189e-01 1.00132500e+04 7.81653100e-03 6.93792600e-02
  1000022 -1    0    0    0    0 +0.0000000000e+00 +0.0000000000e+00 +4.4721471353e+01 1.0000100000e+04 1.0000000000e+04 0.0000e+00 1.0000e+00
  1000022 -1    0    0    0    0 -0.0000000000e+00 -0.0000000000e+00 -4.4721471353e+01 1.0000100000e+04 1.0000000000e+04 0.0000e+00 1.0000e+00
      -24  1    1    2    0    0 +6.8346185055e+03 +2.2733365042e+03 -6.7891683180e+03 9.8984467518e+03 7.9829010000e+01 0.0000e+00 -1.0000e+00
       24  1    1    2    0    0 -6.7284676855e+03 -2.1369061954e+03 +6.5032035435e+03 9.5987850523e+03 7.9829010000e+01 0.0000e+00 -1.0000e+00
       22  1    1    2    0    0 +6.2012685408e+01 +1.4666353349e+01 -6.1415745845e+01 8.8501801732e+01 0.0000000000e+00 0.0000e+00 -1.0000e+00
       22  1    1    2    0    0 -1.6816350549e+02 -1.5109666220e+02 +3.4738052038e+02 4.1446639411e+02 0.0000000000e+00 0.0000e+00 -1.0000e+00
</event>
<event>
 6      1 +1.4834189e-01 1.00397700e+04 7.81653100e-03 6.93633000e-02
  1000022 -1    0    0    0    0 +0.0000000000e+00 +0.0000000000e+00 +4.4721471353e+01 1.0000100000e+04 1.0000000000e+04 0.0000e+00 1.0000e+00
  1000022 -1    0    0    0    0 -0.0000000000e+00 -0.0000000000e+00 -4.4721471353e+01 1.0000100000e+04 1.0000000000e+04 0.0000e+00 1.0000e+00
      -24  1    1    2    0    0 -3.1614722025e+03 -7.6132058948e+03 +5.5899865160e+03 9.9604283243e+03 7.9829010000e+01 0.0000e+00 1.0000e+00
       24  1    1    2    0    0 +3.0064470895e+03 +6.8332954793e+03 -5.0440082123e+03 9.0100523154e+03 7.9829010000e+01 0.0000e+00 1.0000e+00
       22  1    1    2    0    0 +2.7356881426e+02 +5.3573972625e+02 -3.8290803758e+02 7.1307469150e+02 0.0000000000e+00 0.0000e+00 -1.0000e+00
       22  1    1    2    0    0 -1.1854370124e+02 +2.4417068923e+02 -1.6307026610e+02 3.1664466878e+02 0.0000000000e+00 0.0000e+00 -1.0000e+00
</event>
<event>
 6      1 +1.4834189e-01 1.01627200e+04 7.81653100e-03 6.92899300e-02
  1000022 -1    0    0    0    0 +0.0000000000e+00 +0.0000000000e+00 +4.4721471353e+01 1.0000100000e+04 1.0000000000e+04 0.0000e+00 1.0000e+00
  1000022 -1    0    0    0    0 -0.0000000000e+00 -0.0000000000e+00 -4.4721471353e+01 1.0000100000e+04 1.0000000000e+04 0.0000e+00 1.0000e+00
      -24  1    1    2    0    0 -5.4720616428e+02 +8.7995822361e+03 +2.0354366295e+03 9.0488373319e+03 7.9829010000e+01 0.0000e+00 1.0000e+00
       24  1    1    2    0    0 +1.0692628117e+03 -9.6407170081e+03 -1.6379583683e+03 9.8374807587e+03 7.9829010000e+01 0.0000e+00 1.0000e+00
       22  1    1    2    0    0 -1.6251805940e+02 +6.1347643116e+01 -1.2132744860e+02 2.1188676866e+02 0.0000000000e+00 0.0000e+00 -1.0000e+00
       22  1    1    2    0    0 -3.5953858800e+02 +7.7978712885e+02 -2.7615081261e+02 9.0199514072e+02 0.0000000000e+00 0.0000e+00 -1.0000e+00
</event>
<event>
 6      1 +1.4834189e-01 1.02901100e+04 7.81653100e-03 6.92150000e-02
  1000022 -1    0    0    0    0 +0.0000000000e+00 +0.0000000000e+00 +4.4721471353e+01 1.0000100000e+04 1.0000000000e+04 0.0000e+00 -1.0000e+00
  1000022 -1    0    0    0    0 -0.0000000000e+00 -0.0000000000e+00 -4.4721471353e+01 1.0000100000e+04 1.0000000000e+04 0.0000e+00 -1.0000e+00
      -24  1    1    2    0    0 +8.3135338625e+03 +4.9966409522e+03 -4.4510716702e+02 9.7100854347e+03 7.9829010000e+01 0.0000e+00 1.0000e+00
       24  1    1    2    0    0 -5.6501682517e+03 -4.0329625284e+03 +1.7534898165e+03 7.1603273134e+03 7.9829010000e+01 0.0000e+00 1.0000e+00
       22  1    1    2    0    0 -2.7405299340e+01 -2.0038274000e+01 +9.6341717496e+00 3.5290227005e+01 0.0000000000e+00 0.0000e+00 1.0000e+00
       22  1    1    2    0    0 -2.6359603114e+03 -9.4364014978e+02 -1.3180168212e+03 3.0944970249e+03 0.0000000000e+00 0.0000e+00 -1.0000e+00
</event>
<event>
 6      1 +1.4834189e-01 1.00106800e+04 7.81653100e-03 6.93808100e-02
  1000022 -1    0    0    0    0 +0.0000000000e+00 +0.0000000000e+00 +4.4721471353e+01 1.0000100000e+04 1.0000000000e+04 0.0000e+00 1.0000e+00
  1000022 -1    0    0    0    0 -0.0000000000e+00 -0.0000000000e+00 -4.4721471353e+01 1.0000100000e+04 1.0000000000e+04 0.0000e+00 1.0000e+00
      -24  1    1    2    0    0 -6.5235630429e+03 -5.2963070833e+03 -2.7669917386e+03 8.8470537156e+03 7.9829010000e+01 0.0000e+00 -1.0000e+00
       24  1    1    2    0    0 +7.3594745391e+03 +5.9840273365e+03 +3.1326880998e+03 9.9895223137e+03 7.9829010000e+01 0.0000e+00 -1.0000e+00
       22  1    1    2    0    0 -1.4628760844e+01 -8.3537203223e+01 -2.1205506726e+01 8.7419325561e+01 0.0000000000e+00 0.0000e+00 -1.0000e+00
       22  1    1    2    0    0 -8.2128273536e+02 -6.0418304997e+02 -3.4449085454e+02 1.0762046451e+03 0.0000000000e+00 0.0000e+00 1.0000e+00
</event>
<event>
 6      1 +1.4834189e-01 1.00001900e+04 7.81653100e-03 6.93871400e-02
  1000022 -1    0    0    0    0 +0.0000000000e+00 +0.0000000000e+00 +4.4721471353e+01 1.0000100000e+04 1.0000000000e+04 0.0000e+00 1.0000e+00
  1000022 -1    0    0    0    0 -0.0000000000e+00 -0.0000000000e+00 -4.4721471353e+01 1.0000100000e+04 1.0000000000e+04 0.0000e+00 1.0000e+00
      -24  1    1    2    0    0 +2.5217552696e+03 -6.9150291116e+03 +2.4770011734e+03 7.7665168987e+03 7.9829010000e+01 0.0000e+00 1.0000e+00
       24  1    1    2    0    0 -3.2590166423e+03 +8.8517580387e+03 -3.1862890538e+03 9.9565867874e+03 7.9829010000e+01 0.0000e+00 1.0000e+00
       22  1    1    2    0    0 -1.4653808921e+01 +3.5964791388e+01 -1.9821951816e+01 4.3601721403e+01 0.0000000000e+00 0.0000e+00 -1.0000e+00
       22  1    1    2    0    0 +7.5191518159e+02 -1.9726937185e+03 +7.2910983219e+02 2.2334945925e+03 0.0000000000e+00 0.0000e+00 1.0000e+00
</event>
<event>
 6      1 +1.4834189e-01 1.00226400e+04 7.81653100e-03 6.93736000e-02
  1000022 -1    0    0    0    0 +0.0000000000e+00 +0.0000000000e+00 +4.4721471353e+01 1.0000100000e+04 1.0000000000e+04 0.0000e+00 -1.0000e+00
  1000022 -1    0    0    0    0 -0.0000000000e+00 -0.0000000000e+00 -4.4721471353e+01 1.0000100000e+04 1.0000000000e+04 0.0000e+00 -1.0000e+00
      -24  1    1    2    0    0 +9.9623637845e+02 +7.1590696407e+03 +5.4080091068e+03 9.0276076683e+03 7.9829010000e+01 0.0000e+00 -1.0000e+00
       24  1    1    2    0    0 -1.0447271754e+03 -8.0375201005e+03 -5.8182681761e+03 9.9775649072e+03 7.9829010000e+01 0.0000e+00 -1.0000e+00
       22  1    1    2    0    0 +6.1043600442e+01 +8.3869630754e+02 +3.2764462792e+02 9.0249034324e+02 0.0000000000e+00 0.0000e+00 1.0000e+00
       22  1    1    2    0    0 -1.2552803453e+01 +3.9754152247e+01 +8.2614441311e+01 9.2537081262e+01 0.0000000000e+00 0.0000e+00 -1.0000e+00
</event>
<event>
 6      1 +1.4834189e-01 1.00069900e+04 7.81653100e-03 6.93830400e-02
  1000022 -1    0    0    0    0 +0.0000000000e+00 +0.0000000000e+00 +4.4721471353e+01 1.0000100000e+04 1.0000000000e+04 0.0000e+00 1.0000e+00
  1000022 -1    0    0    0    0 -0.0000000000e+00 -0.0000000000e+00 -4.4721471353e+01 1.0000100000e+04 1.0000000000e+04 0.0000e+00 1.0000e+00
      -24  1    1    2    0    0 -5.4813954767e+03 -5.4555345134e+03 +6.3284542353e+03 9.9932106391e+03 7.9829010000e+01 0.0000e+00 -1.0000e+00
       24  1    1    2    0    0 +1.9737202707e+03 +2.0087017390e+03 -2.5369274109e+03 3.7911512423e+03 7.9829010000e+01 0.0000e+00 -1.0000e+00
       22  1    1    2    0    0 +1.7770646233e+01 +1.1415953736e+00 -3.0905811396e+01 3.5668869979e+01 0.0000000000e+00 0.0000e+00 1.0000e+00
       22  1    1    2    0    0 +3.4899045598e+03 +3.4456911791e+03 -3.7606210130e+03 6.1801692486e+03 0.0000000000e+00 0.0000e+00 -1.0000e+00
</event>
<event>
 6      1 +1.4834189e-01 1.00511200e+04 7.81653100e-03 6.93564800e-02
  1000022 -1    0    0    0    0 +0.0000000000e+00 +0.0000000000e+00 +4.4721471353e+01 1.0000100000e+04 1.0000000000e+04 0.0000e+00 -1.0000e+00
  1000022 -1    0    0    0    0 -0.0000000000e+00 -0.0000000000e+00 -4.4721471353e+01 1.0000100000e+04 1.0000000000e+04 0.0000e+00 -1.0000e+00
      -24  1    1    2    0    0 -9.8033673995e+01 -8.7633621673e+03 +7.6156945029e+02 8.7973000275e+03 7.9829010000e+01 0.0000e+00 1.0000e+00
       24  1    1    2    0    0 -6.7482120735e+01 +1.7865923513e+03 +3.9169699058e+02 1.8320112635e+03 7.9829010000e+01 0.0000e+00 -1.0000e+00
       22  1    1    2    0    0 +1.6268303205e+01 -1.1495963428e+03 +6.8915195628e+01 1.1517750272e+03 0.0000000000e+00 0.0000e+00 1.0000e+00
       22  1    1    2    0    0 +1.4924749153e+02 +8.1263661588e+03 -1.2221816365e+03 8.2191136817e+03 0.0000000000e+00 0.0000e+00 1.0000e+00
</event>
<event>
 6      1 +1.4834189e-01 1.00265800e+04 7.81653100e-03 6.93712300e-02
  1000022 -1    0    0    0    0 +0.0000000000e+00 +0.0000000000e+00 +4.4721471353e+01 1.0000100000e+04 1.0000000000e+04 0.0000e+00 1.0000e+00
  1000022 -1    0    0    0    0 -0.0000000000e+00 -0.0000000000e+00 -4.4721471353e+01 1.0000100000e+04 1.0000000000e+04 0.0000e+00 1.0000e+00
      -24  1    1    2    0    0 -7.0473953577e+02 +2.9629648835e+03 -9.4474853195e+03 9.9265890541e+03 7.9829010000e+01 0.0000e+00 -1.0000e+00
       24  1    1    2    0    0 +6.9020604791e+02 -2.9694729153e+03 +9.4959235978e+03 9.9736197757e+03 7.9829010000e+01 0.0000e+00 -1.0000e+00
       22  1    1    2    0    0 -1.2944676307e+01 -3.4551604808e+01 -1.2726864994e+01 3.9030131079e+01 0.0000000000e+00 0.0000e+00 -1.0000e+00
       22  1    1    2    0    0 +2.7478164167e+01 +4.1059636512e+01 -3.5711413309e+01 6.0961039173e+01 0.0000000000e+00 0.0000e+00 1.0000e+00
</event>
<event>
 6      1 +1.4834189e-01 8.54579000e+03 7.81653100e-03 7.03494900e-02
  1000022 -1    0    0    0    0 +0.0000000000e+00 +0.0000000000e+00 +4.4721471353e+01 1.0000100000e+04 1.0000000000e+04 0.0000e+00 1.0000e+00
  1000022 -1    0    0    0    0 -0.0000000000e+00 -0.0000000000e+00 -4.4721471353e+01 1.0000100000e+04 1.0000000000e+04 0.0000e+00 1.0000e+00
      -24  1    1    2    0    0 +3.0912307059e+02 -1.3375679160e+03 -1.9930129145e+03 2.4213876498e+03 7.9829010000e+01 0.0000e+00 1.0000e+00
       24  1    1    2    0    0 -6.8114510634e+03 +3.2796578481e+03 -3.6003572310e+03 8.3738262492e+03 7.9829010000e+01 0.0000e+00 1.0000e+00
       22  1    1    2    0    0 -1.0154564997e+02 -2.1471326882e+02 -1.5274014910e+02 2.8238778300e+02 0.0000000000e+00 0.0000e+00 1.0000e+00
       22  1    1    2    0    0 +6.6038736428e+03 -1.7273766633e+03 +5.7461102946e+03 8.9225983180e+03 0.0000000000e+00 0.0000e+00 1.0000e+00
</event>
<event>
 6      1 +1.4834189e-01 1.02966400e+04 7.81653100e-03 6.92111900e-02
  1000022 -1    0    0    0    0 +0.0000000000e+00 +0.0000000000e+00 +4.4721471353e+01 1.0000100000e+04 1.0000000000e+04 0.0000e+00 1.0000e+00
  1000022 -1    0    0    0    0 -0.0000000000e+00 -0.0000000000e+00 -4.4721471353e+01 1.0000100000e+04 1.0000000000e+04 0.0000e+00 1.0000e+00
      -24  1    1    2    0    0 +7.8425432508e+03 +5.3644428898e+03 -1.9672344706e+03 9.7035620415e+03 7.9829010000e+01 0.0000e+00 -1.0000e+00
       24  1    1    2    0    0 -2.2793523226e+03 -1.8523375287e+03 +7.3218361915e+02 3.0280467060e+03 7.9829010000e+01 0.0000e+00 -1.0000e+00
       22  1    1    2    0    0 -3.9793296611e+02 +2.4244101228e+02 -4.6729978343e+02 6.5992225114e+02 0.0000000000e+00 0.0000e+00 1.0000e+00
       22  1    1    2    0    0 -5.1652579622e+03 -3.7545463734e+03 +1.7023506349e+03 6.6086690014e+03 0.0000000000e+00 0.0000e+00 -1.0000e+00
</event>
<event>
 6      1 +1.4834189e-01 1.00062600e+04 7.81653100e-03 6.93834800e-02
  1000022 -1    0    0    0    0 +0.0000000000e+00 +0.0000000000e+00 +4.4721471353e+01 1.0000100000e+04 1.0000000000e+04 0.0000e+00 -1.0000e+00
  1000022 -1    0    0    0    0 -0.0000000000e+00 -0.0000000000e+00 -4.4721471353e+01 1.0000100000e+04 1.0000000000e+04 0.0000e+00 -1.0000e+00
      -24  1    1    2    0    0 +2.5041755309e+03 +9.3426928067e+03 -2.5131129847e+03 9.9939438419e+03 7.9829010000e+01 0.0000e+00 1.0000e+00
       24  1    1    2    0    0 -2.3732612253e+03 -8.8569297930e+03 +2.3159777064e+03 9.4576793987e+03 7.9829010000e+01 0.0000e+00 1.0000e+00
       22  1    1    2    0    0 -1.4301834868e+02 -4.3598913525e+02 +1.6263370674e+02 4.8681669720e+02 0.0000000000e+00 0.0000e+00 1.0000e+00
       22  1    1    2    0    0 +1.2104043133e+01 -4.9773878495e+01 +3.4501571541e+01 6.1760062171e+01 0.0000000000e+00 0.0000e+00 1.0000e+00
</event>
<event>
 6      1 +1.4834189e-01 1.16030700e+04 7.81653100e-03 6.85010700e-02
  1000022 -1    0    0    0    0 +0.0000000000e+00 +0.0000000000e+00 +4.4721471353e+01 1.0000100000e+04 1.0000000000e+04 0.0000e+00 1.0000e+00
  1000022 -1    0    0    0    0 -0.0000000000e+00 -0.0000000000e+00 -4.4721471353e+01 1.0000100000e+04 1.0000000000e+04 0.0000e+00 1.0000e+00
      -24  1    1    2    0    0 +3.2300575621e+03 +5.9333859249e+03 +2.1455713391e+03 7.0885957304e+03 7.9829010000e+01 0.0000e+00 1.0000e+00
       24  1    1    2    0    0 +7.5833059201e+02 -7.6304674880e+03 -3.2369654985e+03 8.3236661202e+03 7.9829010000e+01 0.0000e+00 1.0000e+00
       22  1    1    2    0    0 +1.5973746873e+01 -7.0321219219e+01 -1.3999570654e+01 7.3458984748e+01 0.0000000000e+00 0.0000e+00 -1.0000e+00
       22  1    1    2    0    0 -4.0043619010e+03 +1.7674027823e+03 +1.1053937301e+03 4.5144791646e+03 0.0000000000e+00 0.0000e+00 1.0000e+00
</event>
<event>
 6      1 +1.4834189e-01 1.00097100e+04 7.81653100e-03 6.93813900e-02
  1000022 -1    0    0    0    0 +0.0000000000e+00 +0.0000000000e+00 +4.4721471353e+01 1.0000100000e+04 1.0000000000e+04 0.0000e+00 -1.0000e+00
  1000022 -1    0    0    0    0 -0.0000000000e+00 -0.0000000000e+00 -4.4721471353e+01 1.0000100000e+04 1.0000000000e+04 0.0000e+00 -1.0000e+00
      -24  1    1    2    0    0 -1.3377242482e+03 +2.1198425027e+03 +7.1009191559e+03 7.5307810970e+03 7.9829010000e+01 0.0000e+00 1.0000e+00
       24  1    1    2    0    0 +1.9010553622e+03 -2.4310300303e+03 -8.4348722413e+03 8.9820577206e+03 7.9829010000e+01 0.0000e+00 1.0000e+00
       22  1    1    2    0    0 +2.0505175527e+02 -2.5500857088e+02 -9.5386399263e+02 1.0084305182e+03 0.0000000000e+00 0.0000e+00 1.0000e+00
       22  1    1    2    0    0 -7.6838286919e+02 +5.6619609846e+02 +2.2878170780e+03 2.4789306642e+03 0.0000000000e+00 0.0000e+00 1.0000e+00
</event>
<event>
 6      1 +1.4834189e-01 1.04046100e+04 7.81653100e-03 6.91485900e-02
  1000022 -1    0    0    0    0 +0.0000000000e+00 +0.0000000000e+00 +4.4721471353e+01 1.0000100000e+04 1.0000000000e+04 0.0000e+00 -1.0000e+00
  1000022 -1    0    0    0    0 -0.0000000000e+00 -0.0000000000e+00 -4.4721471353e+01 1.0000100000e+04 1.0000000000e+04 0.0000e+00 -1.0000e+00
      -24  1    1    2    0    0 +4.9854331358e+03 -6.4596323488e+03 +5.0485291671e+03 9.5955934186e+03 7.9829010000e+01 0.0000e+00 1.0000e+00
       24  1    1    2    0    0 -1.7282498070e+03 +3.0925509330e+03 -1.5649314092e+03 3.8737709863e+03 7.9829010000e+01 0.0000e+00 1.0000e+00
       22  1    1    2    0    0 -5.1928771568e+02 -5.2438255892e+02 -2.5522049902e+02 7.8088046644e+02 0.0000000000e+00 0.0000e+00 -1.0000e+00
       22  1    1    2    0    0 -2.7378956131e+03 +3.8914639747e+03 -3.2283772590e+03 5.7499551286e+03 0.0000000000e+00 0.0000e+00 1.0000e+00
</event>
<event>
 6      1 +1.4834189e-01 1.00269300e+04 7.81653100e-03 6.93710200e-02
  1000022 -1    0    0    0    0 +0.0000000000e+00 +0.0000000000e+00 +4.4721471353e+01 1.0000100000e+04 1.0000000000e+04 0.0000e+00 -1.0000e+00
  1000022 -1    0    0    0    0 -0.0000000000e+00 -0.0000000000e+00 -4.4721471353e+01 1.0000100000e+04 1.0000000000e+04 0.0000e+00 -1.0000e+00
      -24  1    1    2    0    0 -4.9373752799e+03 -6.4953709212e+03 +5.6038326677e+03 9.8983246712e+03 7.9829010000e+01 0.0000e+00 -1.0000e+00
       24  1    1    2    0    0 +5.0487681298e+03 +6.4648276529e+03 -5.5994820199e+03 9.9320001899e+03 7.9829010000e+01 0.0000e+00 -1.0000e+00
       22  1    1    2    0    0 +1.6012526635e+01 +3.1112331406e+01 -2.1879197309e+01 4.1268358940e+01 0.0000000000e+00 0.0000e+00 1.0000e+00
       22  1    1    2    0    0 -1.2740537652e+02 -5.6906311571e-01 +1.7528549525e+01 1.2860677995e+02 0.0000000000e+00 0.0000e+00 1.0000e+00
</event>
<event>
 6      1 +1.4834189e-01 1.00054700e+04 7.81653100e-03 6.93839500e-02
  1000022 -1    0    0    0    0 +0.0000000000e+00 +0.0000000000e+00 +4.4721471353e+01 1.0000100000e+04 1.0000000000e+04 0.0000e+00 -1.0000e+00
  1000022 -1    0    0    0    0 -0.0000000000e+00 -0.0000000000e+00 -4.4721471353e+01 1.0000100000e+04 1.0000000000e+04 0.0000e+00 -1.0000e+00
      -24  1    1    2    0    0 -7.6069844854e+03 -4.9196594629e+03 -4.1495233188e+03 9.9646464381e+03 7.9829010000e+01 0.0000e+00 1.0000e+00
       24  1    1    2    0    0 +4.4994001906e+03 +2.9243760396e+03 +2.4293017058e+03 5.8910488663e+03 7.9829010000e+01 0.0000e+00 1.0000e+00
       22  1    1    2    0    0 +3.1458918939e+03 +2.0049292175e+03 +1.7099111533e+03 4.1036780000e+03 0.0000000000e+00 0.0000e+00 1.0000e+00
       22  1    1    2    0    0 -3.8307599135e+01 -9.6457941657e+00 +1.0310459643e+01 4.0826695612e+01 0.0000000000e+00 0.0000e+00 1.0000e+00
</event>
<event>
 6      1 +1.4834189e-01 8.55602300e+03 7.81653100e-03 7.03420600e-02
  1000022 -1    0    0    0    0 +0.0000000000e+00 +0.0000000000e+00 +4.4721471353e+01 1.0000100000e+04 1.0000000000e+04 0.0000e+00 -1.0000e+00
  1000022 -1    0    0    0    0 -0.0000000000e+00 -0.0000000000e+00 -4.4721471353e+01 1.0000100000e+04 1.0000000000e+04 0.0000e+00 -1.0000e+00
      -24  1    1    2    0    0 -6.0692475418e+01 +6.7063101425e+01 +3.5063523943e+02 3.7080827676e+02 7.9829010000e+01 0.0000e+00 0.0000e+00
       24  1    1    2    0    0 -6.3830645314e+01 -2.6979954452e+03 -1.7826706569e+02 2.7058095999e+03 7.9829010000e+01 0.0000e+00 -1.0000e+00
       22  1    1    2    0    0 +3.0602602560e+03 -1.2613951197e+03 -7.4566681927e+03 8.1583215809e+03 0.0000000000e+00 0.0000e+00 1.0000e+00
       22  1    1    2    0    0 -2.9357371352e+03 +3.8923274634e+03 +7.2843000189e+03 8.7652605424e+03 0.0000000000e+00 0.0000e+00 1.0000e+00
</event>
<event>
 6      1 +1.4834189e-01 5.12635600e+03 7.81653100e-03 7.36748200e-02
  1000022 -1    0    0    0    0 +0.0000000000e+00 +0.0000000000e+00 +4.4721471353e+01 1.0000100000e+04 1.0000000000e+04 0.0000e+00 1.0000e+00
  1000022 -1    0    0    0    0 -0.0000000000e+00 -0.0000000000e+00 -4.4721471353e+01 1.0000100000e+04 1.0000000000e+04 0.0000e+00 1.0000e+00
      -24  1    1    2    0    0 -3.2629698017e+03 +4.6060407408e+03 +4.4050817957e+03 7.1605657270e+03 7.9829010000e+01 0.0000e+00 1.0000e+00
       24  1    1    2    0    0 -9.7006942015e+02 -3.6683208908e+03 -6.6897168048e+03 7.6913130503e+03 7.9829010000e+01 0.0000e+00 1.0000e+00
       22  1    1    2    0    0 +4.3336911380e+03 -1.0321307955e+03 +2.1203520255e+03 4.9337678878e+03 0.0000000000e+00 0.0000e+00 1.0000e+00
       22  1    1    2    0    0 -1.0065191609e+02 +9.4410945487e+01 +1.6428298355e+02 2.1455333492e+02 0.0000000000e+00 0.0000e+00 -1.0000e+00
</event>
<event>
 6      1 +1.4834189e-01 1.00003600e+04 7.81653100e-03 6.93870400e-02
  1000022 -1    0    0    0    0 +0.0000000000e+00 +0.0000000000e+00 +4.4721471353e+01 1.0000100000e+04 1.0000000000e+04 0.0000e+00 1.0000e+00
  1000022 -1    0    0    0    0 -0.0000000000e+00 -0.0000000000e+00 -4.4721471353e+01 1.0000100000e+04 1.0000000000e+04 0.0000e+00 1.0000e+00
      -24  1    1    2    0    0 +5.2593799238e+03 -2.8736323625e+03 +7.8930030835e+03 9.9108380314e+03 7.9829010000e+01 0.0000e+00 -1.0000e+00
       24  1    1    2    0    0 -2.0075292238e+02 +1.7747774398e+02 -3.1852177722e+02 4.2382647257e+02 7.9829010000e+01 0.0000e+00 -1.0000e+00
       22  1    1    2    0    0 -5.1345043988e+03 +2.7258528097e+03 -7.6102918346e+03 9.5765312493e+03 0.0000000000e+00 0.0000e+00 -1.0000e+00
       22  1    1    2    0    0 +7.5877397335e+01 -2.9698191215e+01 +3.5810528371e+01 8.9004246697e+01 0.0000000000e+00 0.0000e+00 -1.0000e+00
</event>
<event>
 6      1 +1.4834189e-01 1.00290500e+04 7.81653100e-03 6.93697400e-02
  1000022 -1    0    0    0    0 +0.0000000000e+00 +0.0000000000e+00 +4.4721471353e+01 1.0000100000e+04 1.0000000000e+04 0.0000e+00 -1.0000e+00
  1000022 -1    0    0    0    0 -0.0000000000e+00 -0.0000000000e+00 -4.4721471353e+01 1.0000100000e+04 1.0000000000e+04 0.0000e+00 -1.0000e+00
      -24  1    1    2    0    0 -2.0978268876e+03 -9.0160833840e+03 -2.8560999817e+03 9.6878437752e+03 7.9829010000e+01 0.0000e+00 -1.0000e+00
       24  1    1    2    0    0 +9.7729474377e+01 +3.8217236605e+02 +1.5908950079e+02 4.3276888478e+02 7.9829010000e+01 0.0000e+00 0.0000e+00
       22  1    1    2    0    0 +2.1815608835e+03 +8.8133072190e+03 +2.9235330079e+03 9.5383770775e+03 0.0000000000e+00 0.0000e+00 -1.0000e+00
       22  1    1    2    0    0 -1.8146347032e+02 -1.7939620104e+02 -2.2652252700e+02 3.4121026252e+02 0.0000000000e+00 0.0000e+00 1.0000e+00
</event>
<event>
 6      1 +1.4834189e-01 1.00847900e+04 7.81653100e-03 6.93363100e-02
  1000022 -1    0    0    0    0 +0.0000000000e+00 +0.0000000000e+00 +4.4721471353e+01 1.0000100000e+04 1.0000000000e+04 0.0000e+00 -1.0000e+00
  1000022 -1    0    0    0    0 -0.0000000000e+00 -0.0000000000e+00 -4.4721471353e+01 1.0000100000e+04 1.0000000000e+04 0.0000e+00 -1.0000e+00
      -24  1    1    2    0    0 -1.2060984142e+03 -9.8265235256e+03 -5.4196318434e+02 9.9154089552e+03 7.9829010000e+01 0.0000e+00 1.0000e+00
       24  1    1    2    0    0 +5.6702941302e+02 +6.0261044111e+03 +2.1074022712e+02 6.0569167770e+03 7.9829010000e+01 0.0000e+00 1.0000e+00
       22  1    1    2    0    0 +2.0054641458e+02 +3.5482016938e+01 -7.2191080192e+01 2.1607727782e+02 0.0000000000e+00 0.0000e+00 1.0000e+00
       22  1    1    2    0    0 +4.3852258659e+02 +3.7649370976e+03 +4.0341403742e+02 3.8117969900e+03 0.0000000000e+00 0.0000e+00 1.0000e+00
</event>
<event>
 6      1 +1.4834189e-01 1.04231000e+04 7.81653100e-03 6.91379400e-02
  1000022 -1    0    0    0    0 +0.0000000000e+00 +0.0000000000e+00 +4.4721471353e+01 1.0000100000e+04 1.0000000000e+04 0.0000e+00 -1.0000e+00
  1000022 -1    0    0    0    0 -0.0000000000e+00 -0.0000000000e+00 -4.4721471353e+01 1.0000100000e+04 1.0000000000e+04 0.0000e+00 -1.0000e+00
      -24  1    1    2    0    0 +1.3297809961e+03 -6.1589740545e+02 +2.2460590742e+03 2.6830581706e+03 7.9829010000e+01 0.0000e+00 1.0000e+00
       24  1    1    2    0    0 -2.7741162045e+03 -3.9555710248e+03 -8.2687497428e+03 9.5771007006e+03 7.9829010000e+01 0.0000e+00 1.0000e+00
       22  1    1    2    0    0 +4.4224518554e+01 -2.8880971997e+01 +6.0020687710e+01 7.9952495508e+01 0.0000000000e+00 0.0000e+00 1.0000e+00
       22  1    1    2    0    0 +1.4001106899e+03 +4.6003494023e+03 +5.9626699810e+03 7.6600886332e+03 0.0000000000e+00 0.0000e+00 1.0000e+00
</event>
<event>
 6      1 +1.4834189e-01 1.00157500e+04 7.81653100e-03 6.93777500e-02
  1000022 -1    0    0    0    0 +0.0000000000e+00 +0.0000000000e+00 +4.4721471353e+01 1.0000100000e+04 1.0000000000e+04 0.0000e+00 1.0000e+00
  1000022 -1    0    0    0    0 -0.0000000000e+00 -0.0000000000e+00 -4.4721471353e+01 1.0000100000e+04 1.0000000000e+04 0.0000e+00 1.0000e+00
      -24  1    1    2    0    0 +4.8181224669e+03 -1.3117956330e+03 -7.1054563039e+03 8.6849866924e+03 7.9829010000e+01 0.0000e+00 -1.0000e+00
       24  1    1    2    0    0 -5.2525371459e+01 +7.5275220942e+01 +1.1990556779e+02 1.7080775615e+02 7.9829010000e+01 0.0000e+00 0.0000e+00
       22  1    1    2    0    0 -5.4573391184e+03 +1.4029686826e+03 +8.0729242170e+03 9.8449467642e+03 0.0000000000e+00 0.0000e+00 -1.0000e+00
       22  1    1    2    0    0 +6.9174202290e+02 -1.6644827056e+02 -1.0873734808e+03 1.2994587873e+03 0.0000000000e+00 0.0000e+00 -1.0000e+00
</event>
<event>
 6      1 +1.4834189e-01 1.00001500e+04 7.81653100e-03 6.93871700e-02
  1000022 -1    0    0    0    0 +0.0000000000e+00 +0.0000000000e+00 +4.4721471353e+01 1.0000100000e+04 1.0000000000e+04 0.0000e+00 1.0000e+00
  1000022 -1    0    0    0    0 -0.0000000000e+00 -0.0000000000e+00 -4.4721471353e+01 1.0000100000e+04 1.0000000000e+04 0.0000e+00 1.0000e+00
      -24  1    1    2    0    0 -4.3097844535e+03 +8.3304202910e+03 +2.8005937880e+03 9.7887610297e+03 7.9829010000e+01 0.0000e+00 -1.0000e+00
       24  1    1    2    0    0 +4.3407200092e+03 -8.3536096132e+03 -2.8345388158e+03 9.8318679170e+03 7.9829010000e+01 0.0000e+00 -1.0000e+00
       22  1    1    2    0    0 -1.0104724333e+02 +1.7185659725e+02 +6.9997460684e+01 2.1129335036e+02 0.0000000000e+00 0.0000e+00 -1.0000e+00
       22  1    1    2    0    0 +7.0111687553e+01 -1.4866727507e+02 -3.6052432872e+01 1.6827770299e+02 0.0000000000e+00 0.0000e+00 -1.0000e+00
</event>
<event>
 6      1 +1.4834189e-01 1.02000400e+04 7.81653100e-03 6.92678700e-02
  1000022 -1    0    0    0    0 +0.0000000000e+00 +0.0000000000e+00 +4.4721471353e+01 1.0000100000e+04 1.0000000000e+04 0.0000e+00 -1.0000e+00
  1000022 -1    0    0    0    0 -0.0000000000e+00 -0.0000000000e+00 -4.4721471353e+01 1.0000100000e+04 1.0000000000e+04 0.0000e+00 -1.0000e+00
      -24  1    1    2    0    0 -8.3801864893e+03 +1.3245791346e+03 -4.9045718893e+03 9.8001649766e+03 7.9829010000e+01 0.0000e+00 1.0000e+00
       24  1    1    2    0    0 +9.0557669443e+02 -2.7659599078e+01 -3.4393050150e+02 9.7236570467e+02 7.9829010000e+01 0.0000e+00 1.0000e+00
       22  1    1    2    0    0 +7.4649629087e+03 -1.2862716564e+03 +5.2345566193e+03 9.2076462249e+03 0.0000000000e+00 0.0000e+00 1.0000e+00
       22  1    1    2    0    0 +9.6468861819e+00 -1.0647879160e+01 +1.3945771484e+01 2.0023093814e+01 0.0000000000e+00 0.0000e+00 1.0000e+00
</event>
<event>
 6      1 +1.4834189e-01 1.01184400e+04 7.81653100e-03 6.93162300e-02
  1000022 -1    0    0    0    0 +0.0000000000e+00 +0.0000000000e+00 +4.4721471353e+01 1.0000100000e+04 1.0000000000e+04 0.0000e+00 -1.0000e+00
  1000022 -1    0    0    0    0 -0.0000000000e+00 -0.0000000000e+00 -4.4721471353e+01 1.0000100000e+04 1.0000000000e+04 0.0000e+00 -1.0000e+00
      -24  1    1    2    0    0 -5.6564390939e+03 +2.7236716834e+02 +9.2383477634e+02 5.7384083562e+03 7.9829010000e+01 0.0000e+00 1.0000e+00
       24  1    1    2    0    0 +2.3631315327e+02 -7.3072307752e+01 +2.6865338056e+01 2.6130037466e+02 7.9829010000e+01 0.0000e+00 1.0000e+00
       22  1    1    2    0    0 -3.6531174364e+03 +1.9697836676e+03 +1.3997608537e+03 4.3800279850e+03 0.0000000000e+00 0.0000e+00 1.0000e+00
       22  1    1    2    0    0 +9.0732433770e+03 -2.1690785282e+03 -2.3504609681e+03 9.6204632842e+03 0.0000000000e+00 0.0000e+00 1.0000e+00
</event>
<event>
 6      1 +1.4834189e-01 1.00025400e+04 7.81653100e-03 6.93857200e-02
  1000022 -1    0    0    0    0 +0.0000000000e+00 +0.0000000000e+00 +4.4721471353e+01 1.0000100000e+04 1.0000000000e+04 0.0000e+00 -1.0000e+00
  1000022 -1    0    0    0    0 -0.0000000000e+00 -0.0000000000e+00 -4.4721471353e+01 1.0000100000e+04 1.0000000000e+04 0.0000e+00 -1.0000e+00
      -24  1    1    2    0    0 -2.8187493558e+03 -9.2369301416e+03 +2.1341281593e+03 9.8907584159e+03 7.9829010000e+01 0.0000e+00 -1.0000e+00
       24  1    1    2    0    0 +2.4608188533e+03 +7.7772010676e+03 -1.7147623620e+03 8.3359023809e+03 7.9829010000e+01 0.0000e+00 -1.0000e+00
       22  1    1    2    0    0 +3.8614341330e+02 +1.5613971048e+03 -4.3657979677e+02 1.6666342051e+03 0.0000000000e+00 0.0000e+00 -1.0000e+00
       22  1    1    2    0    0 -2.8212910806e+01 -1.0166803087e+02 +1.7213999403e+01 1.0690499807e+02 0.0000000000e+00 0.0000e+00 -1.0000e+00
</event>
<event>
 6      1 +1.4834189e-01 1.04717700e+04 7.81653100e-03 6.91100300e-02
  1000022 -1    0    0    0    0 +0.0000000000e+00 +0.0000000000e+00 +4.4721471353e+01 1.0000100000e+04 1.0000000000e+04 0.0000e+00 1.0000e+00
  1000022 -1    0    0    0    0 -0.0000000000e+00 -0.0000000000e+00 -4.4721471353e+01 1.0000100000e+04 1.0000000000e+04 0.0000e+00 1.0000e+00
      -24  1    1    2    0    0 -5.5655088998e+03 -2.1153049181e+03 +5.4689336530e+02 5.9795375435e+03 7.9829010000e+01 0.0000e+00 -1.0000e+00
       24  1    1    2    0    0 +4.7819548134e+03 +2.8861279679e+03 +1.2912845206e+03 5.7332900562e+03 7.9829010000e+01 0.0000e+00 -1.0000e+00
       22  1    1    2    0    0 -3.2143826810e+03 -1.3633037513e+03 +6.3542128698e+02 3.5488890304e+03 0.0000000000e+00 0.0000e+00 -1.0000e+00
       22  1    1    2    0    0 +3.9979367675e+03 +5.9248070143e+02 -2.4735991729e+03 4.7384833699e+03 0.0000000000e+00 0.0000e+00 -1.0000e+00
</event>
<event>
 6      1 +1.4834189e-01 1.05924700e+04 7.81653100e-03 6.90414600e-02
  1000022 -1    0    0    0    0 +0.0000000000e+00 +0.0000000000e+00 +4.4721471353e+01 1.0000100000e+04 1.0000000000e+04 0.0000e+00 -1.0000e+00
  1000022 -1    0    0    0    0 -0.0000000000e+00 -0.0000000000e+00 -4.4721471353e+01 1.0000100000e+04 1.0000000000e+04 0.0000e+00 -1.0000e+00
      -24  1    1    2    0    0 -6.8031514523e+03 +3.9647567801e+03 +5.0710494868e+03 9.3661134724e+03 7.9829010000e+01 0.0000e+00 1.0000e+00
       24  1    1    2    0    0 +5.7298873765e+03 -3.1987849403e+03 -6.0561309930e+03 8.9301136453e+03 7.9829010000e+01 0.0000e+00 1.0000e+00
       22  1    1    2    0    0 +1.1025110198e+03 -7.8664738014e+02 +9.6388922696e+02 1.6623558859e+03 0.0000000000e+00 0.0000e+00 -1.0000e+00
       22  1    1    2    0    0 -2.9246943956e+01 +2.0675540316e+01 +2.1192279247e+01 4.1616996502e+01 0.0000000000e+00 0.0000e+00 1.0000e+00
</event>
<event>
 6      1 +1.4834189e-01 1.00053800e+04 7.81653100e-03 6.93840100e-02
  1000022 -1    0    0    0    0 +0.0000000000e+00 +0.0000000000e+00 +4.4721471353e+01 1.0000100000e+04 1.0000000000e+04 0.0000e+00 1.0000e+00
  1000022 -1    0    0    0    0 -0.0000000000e+00 -0.0000000000e+00 -4.4721471353e+01 1.0000100000e+04 1.0000000000e+04 0.0000e+00 1.0000e+00
      -24  1    1    2    0    0 -2.8462674812e+03 -7.8575021519e+03 +1.0460090822e+03 8.4227125270e+03 7.9829010000e+01 0.0000e+00 -1.0000e+00
       24  1    1    2    0    0 +3.3442418570e+03 +9.2565706962e+03 -1.2560593433e+03 9.9223037847e+03 7.9829010000e+01 0.0000e+00 -1.0000e+00
       22  1    1    2    0    0 +3.7407343166e+01 +6.8013113469e+01 +2.9606703336e+01 8.3076168718e+01 0.0000000000e+00 0.0000e+00 -1.0000e+00
       22  1    1    2    0    0 -5.3538171897e+02 -1.4670816578e+03 +1.8044355768e+02 1.5721075196e+03 0.0000000000e+00 0.0000e+00 -1.0000e+00
</event>
<event>
 6      1 +1.4834189e-01 1.00041700e+04 7.81653100e-03 6.93847400e-02
  1000022 -1    0    0    0    0 +0.0000000000e+00 +0.0000000000e+00 +4.4721471353e+01 1.0000100000e+04 1.0000000000e+04 0.0000e+00 -1.0000e+00
  1000022 -1    0    0    0    0 -0.0000000000e+00 -0.0000000000e+00 -4.4721471353e+01 1.0000100000e+04 1.0000000000e+04 0.0000e+00 -1.0000e+00
      -24  1    1    2    0    0 +6.2075547009e+03 +7.3629049545e+03 +1.3988645679e+03 9.7318702973e+03 7.9829010000e+01 0.0000e+00 -1.0000e+00
       24  1    1    2    0    0 -6.3015469717e+03 -7.5322526377e+03 -1.3782757228e+03 9.9171740265e+03 7.9829010000e+01 0.0000e+00 -1.0000e+00
       22  1    1    2    0    0 +1.3443442694e+02 +2.3649456419e+02 -1.1954673769e+01 2.7229617747e+02 0.0000000000e+00 0.0000e+00 -1.0000e+00
       22  1    1    2    0    0 -4.0442156125e+01 -6.7146881025e+01 -8.6341713458e+00 7.8859498719e+01 0.0000000000e+00 0.0000e+00 -1.0000e+00
</event>
<event>
 6      1 +1.4834189e-01 1.00002100e+04 7.81653100e-03 6.93871300e-02
  1000022 -1    0    0    0    0 +0.0000000000e+00 +0.0000000000e+00 +4.4721471353e+01 1.0000100000e+04 1.0000000000e+04 0.0000e+00 1.0000e+00
  1000022 -1    0    0    0    0 -0.0000000000e+00 -0.0000000000e+00 -4.4721471353e+01 1.0000100000e+04 1.0000000000e+04 0.0000e+00 1.0000e+00
      -24  1    1    2    0    0 +9.3842903367e+02 -9.8371641033e+03 -1.3649720094e+03 9.9759695220e+03 7.9829010000e+01 0.0000e+00 1.0000e+00
       24  1    1    2    0    0 -9.3724875742e+02 +9.7946158941e+03 +1.3539668331e+03 9.9323982301e+03 7.9829010000e+01 0.0000e+00 1.0000e+00
       22  1    1    2    0    0 -3.8757430357e-01 +6.6395163879e+01 +1.3780413849e+01 6.7811266072e+01 0.0000000000e+00 0.0000e+00 -1.0000e+00
       22  1    1    2    0    0 -7.9270195193e-01 -2.3846954676e+01 -2.7752374640e+00 2.4020981801e+01 0.0000000000e+00 0.0000e+00 -1.0000e+00
</event>
<event>
 6      1 +1.4834189e-01 1.04531300e+04 7.81653100e-03 6.91207000e-02
  1000022 -1    0    0    0    0 +0.0000000000e+00 +0.0000000000e+00 +4.4721471353e+01 1.0000100000e+04 1.0000000000e+04 0.0000e+00 1.0000e+00
  1000022 -1    0    0    0    0 -0.0000000000e+00 -0.0000000000e+00 -4.4721471353e+01 1.0000100000e+04 1.0000000000e+04 0.0000e+00 1.0000e+00
      -24  1    1    2    0    0 -5.4221540986e+03 +6.8148863090e+03 -2.1067239387e+03 8.9603062949e+03 7.9829010000e+01 0.0000e+00 -1.0000e+00
       24  1    1    2    0    0 +6.4034388441e+03 -6.3953097615e+03 +1.2860044421e+03 9.1413454191e+03 7.9829010000e+01 0.0000e+00 -1.0000e+00
       22  1    1    2    0    0 -1.2684425650e+03 -1.3659776167e+02 +7.7519677754e+02 1.4928280320e+03 0.0000000000e+00 0.0000e+00 -1.0000e+00
       22  1    1    2    0    0 +2.8715781953e+02 -2.8297878589e+02 +4.5522719122e+01 4.0572025404e+02 0.0000000000e+00 0.0000e+00 1.0000e+00
</event>
<event>
 6      1 +1.4834189e-01 9.95193400e+03 7.81653100e-03 6.94163600e-02
  1000022 -1    0    0    0    0 +0.0000000000e+00 +0.0000000000e+00 +4.4721471353e+01 1.0000100000e+04 1.0000000000e+04 0.0000e+00 -1.0000e+00
  1000022 -1    0    0    0    0 -0.0000000000e+00 -0.0000000000e+00 -4.4721471353e+01 1.0000100000e+04 1.0000000000e+04 0.0000e+00 -1.0000e+00
      -24  1    1    2    0    0 +4.7366419875e+01 +1.6594575434e+01 +2.5554454099e+01 9.7696768767e+01 7.9829010000e+01 0.0000e+00 -1.0000e+00
       24  1    1    2    0    0 +1.3913686004e+03 -2.3711762865e+03 -3.7367003177e+03 4.6397936913e+03 7.9829010000e+01 0.0000e+00 -1.0000e+00
       22  1    1    2    0    0 -3.0694068830e+03 +5.1730514190e+03 +7.9175123865e+03 9.9432752143e+03 0.0000000000e+00 0.0000e+00 -1.0000e+00
       22  1    1    2    0    0 +1.6306718628e+03 -2.8184697080e+03 -4.2063665229e+03 5.3194343256e+03 0.0000000000e+00 0.0000e+00 -1.0000e+00
</event>
<event>
 6      1 +1.4834189e-01 1.03871100e+04 7.81653100e-03 6.91586800e-02
  1000022 -1    0    0    0    0 +0.0000000000e+00 +0.0000000000e+00 +4.4721471353e+01 1.0000100000e+04 1.0000000000e+04 0.0000e+00 -1.0000e+00
  1000022 -1    0    0    0    0 -0.0000000000e+00 -0.0000000000e+00 -4.4721471353e+01 1.0000100000e+04 1.0000000000e+04 0.0000e+00 -1.0000e+00
      -24  1    1    2    0    0 -4.5269551090e+03 -4.7942981826e+03 -2.1650151042e+03 6.9406253821e+03 7.9829010000e+01 0.0000e+00 1.0000e+00
       24  1    1    2    0    0 +5.8634269425e+03 +6.4007696349e+03 +1.4690620726e+03 8.8042116895e+03 7.9829010000e+01 0.0000e+00 1.0000e+00
       22  1    1    2    0    0 +3.3450173045e+02 +3.1140700917e+02 +1.5154901935e+03 1.5829012160e+03 0.0000000000e+00 0.0000e+00 -1.0000e+00
       22  1    1    2    0    0 -1.6709735639e+03 -1.9178784615e+03 -8.1953716187e+02 2.6724617124e+03 0.0000000000e+00 0.0000e+00 1.0000e+00
</event>
<event>
 6      1 +1.4834189e-01 1.00322500e+04 7.81653100e-03 6.93678200e-02
  1000022 -1    0    0    0    0 +0.0000000000e+00 +0.0000000000e+00 +4.4721471353e+01 1.0000100000e+04 1.0000000000e+04 0.0000e+00 -1.0000e+00
  1000022 -1    0    0    0    0 -0.0000000000e+00 -0.0000000000e+00 -4.4721471353e+01 1.0000100000e+04 1.0000000000e+04 0.0000e+00 -1.0000e+00
      -24  1    1    2    0    0 -4.7822508678e+02 -2.8947178517e+03 -2.0332346750e+03 3.5705050888e+03 7.9829010000e+01 0.0000e+00 -1.0000e+00
       24  1    1    2    0    0 +1.2988162635e+03 +7.1685788676e+03 +6.8028091251e+03 9.9679502071e+03 7.9829010000e+01 0.0000e+00 -1.0000e+00
       22  1    1    2    0    0 -1.3623440079e+01 -3.9758500906e+01 -1.6060518105e+01 4.4991963234e+01 0.0000000000e+00 0.0000e+00 -1.0000e+00
       22  1    1    2    0    0 -8.0696773665e+02 -4.2341025150e+03 -4.7535139320e+03 6.4167527408e+03 0.0000000000e+00 0.0000e+00 -1.0000e+00
</event>
<event>
 6      1 +1.4834189e-01 1.00820200e+04 7.81653100e-03 6.93379700e-02
  1000022 -1    0    0    0    0 +0.0000000000e+00 +0.0000000000e+00 +4.4721471353e+01 1.0000100000e+04 1.0000000000e+04 0.0000e+00 1.0000e+00
  1000022 -1    0    0    0    0 -0.0000000000e+00 -0.0000000000e+00 -4.4721471353e+01 1.0000100000e+04 1.0000000000e+04 0.0000e+00 1.0000e+00
      -24  1    1    2    0    0 +7.5652526506e+03 -6.0398902767e+03 -2.1565309697e+03 9.9181813210e+03 7.9829010000e+01 0.0000e+00 1.0000e+00
       24  1    1    2    0    0 -7.4178099113e+03 +6.1476550174e+03 +2.1414724243e+03 9.8696424914e+03 7.9829010000e+01 0.0000e+00 1.0000e+00
       22  1    1    2    0    0 -1.2281576394e+02 -1.2970839636e+02 +9.1189554747e+00 1.7886065892e+02 0.0000000000e+00 0.0000e+00 1.0000e+00
       22  1    1    2    0    0 -2.4626975292e+01 +2.1943655679e+01 +5.9395899157e+00 3.3515528714e+01 0.0000000000e+00 0.0000e+00 -1.0000e+00
</event>
<event>
 6      1 +1.4834189e-01 1.00075500e+04 7.81653100e-03 6.93827000e-02
  1000022 -1    0    0    0    0 +0.0000000000e+00 +0.0000000000e+00 +4.4721471353e+01 1.0000100000e+04 1.0000000000e+04 0.0000e+00 -1.0000e+00
  1000022 -1    0    0    0    0 -0.0000000000e+00 -0.0000000000e+00 -4.4721471353e+01 1.0000100000e+04 1.0000000000e+04 0.0000e+00 -1.0000e+00
      -24  1    1    2    0    0 +4.8792187668e+03 +7.8531674276e+03 +3.7904751886e+03 9.9926517625e+03 7.9829010000e+01 0.0000e+00 1.0000e+00
       24  1    1    2    0    0 -4.8376319639e+03 -7.7395147735e+03 -3.7302674431e+03 9.8602251402e+03 7.9829010000e+01 0.0000e+00 1.0000e+00
       22  1    1    2    0    0 -5.2899680779e+01 -1.0407878476e+02 -6.2337158585e+01 1.3235063659e+02 0.0000000000e+00 0.0000e+00 1.0000e+00
       22  1    1    2    0    0 +1.1312877888e+01 -9.5738693452e+00 +2.1294130942e+00 1.4972460735e+01 0.0000000000e+00 0.0000e+00 -1.0000e+00
</event>
<event>
 6      1 +1.4834189e-01 1.00008300e+04 7.81653100e-03 6.93867600e-02
  1000022 -1    0    0    0    0 +0.0000000000e+00 +0.0000000000e+00 +4.4721471353e+01 1.0000100000e+04 1.0000000000e+04 0.0000e+00 -1.0000e+00
  1000022 -1    0    0    0    0 -0.0000000000e+00 -0.0000000000e+00 -4.4721471353e+01 1.0000100000e+04 1.0000000000e+04 0.0000e+00 -1.0000e+00
      -24  1    1    2    0    0 -3.1819410248e+03 -4.8067202431e+03 -7.9963862070e+03 9.8578838106e+03 7.9829010000e+01 0.0000e+00 -1.0000e+00
       24  1    1    2    0    0 +3.1882567677e+03 +4.8028271381e+03 +8.0271837346e+03 9.8830248970e+03 7.9829010000e+01 0.0000e+00 -1.0000e+00
       22  1    1    2    0    0 -5.4672751092e+01 -6.5204724249e+01 -1.1304260862e+02 1.4148991886e+02 0.0000000000e+00 0.0000e+00 -1.0000e+00
       22  1    1    2    0    0 +4.8357008182e+01 +6.9097829207e+01 +8.2245081091e+01 1.1780137353e+02 0.0000000000e+00 0.0000e+00 1.0000e+00
</event>
<event>
 6      1 +1.4834189e-01 1.01178200e+04 7.81653100e-03 6.93166000e-02
  1000022 -1    0    0    0    0 +0.0000000000e+00 +0.0000000000e+00 +4.4721471353e+01 1.0000100000e+04 1.0000000000e+04 0.0000e+00 1.0000e+00
  1000022 -1    0    0    0    0 -0.0000000000e+00 -0.0000000000e+00 -4.4721471353e+01 1.0000100000e+04 1.0000000000e+04 0.0000e+00 1.0000e+00
      -24  1    1    2    0    0 -2.4776432601e+03 -1.1857464253e+02 +9.4961995850e+03 9.8151390871e+03 7.9829010000e+01 0.0000e+00 1.0000e+00
       24  1    1    2    0    0 +5.9305880527e+02 -8.7865049423e+02 -4.4373864220e+03 4.5629504015e+03 7.9829010000e+01 0.0000e+00 1.0000e+00
       22  1    1    2    0    0 +1.9001735517e+03 +9.9439317032e+02 -5.1241643139e+03 5.5548660848e+03 0.0000000000e+00 0.0000e+00 1.0000e+00
       22  1    1    2    0    0 -1.5589096868e+01 +2.8319664390e+00 +6.5351150934e+01 6.7244426561e+01 0.0000000000e+00 0.0000e+00 -1.0000e+00
</event>
<event>
 6      1 +1.4834189e-01 1.00106900e+04 7.81653100e-03 6.93808000e-02
  1000022 -1    0    0    0    0 +0.0000000000e+00 +0.0000000000e+00 +4.4721471353e+01 1.0000100000e+04 1.0000000000e+04 0.0000e+00 -1.0000e+00
  1000022 -1    0    0    0    0 -0.0000000000e+00 -0.0000000000e+00 -4.4721471353e+01 1.0000100000e+04 1.0000000000e+04 0.0000e+00 -1.0000e+00
      -24  1    1    2    0    0 -6.6451509671e+03 +2.8861656911e+03 -6.8428793952e+03 9.9659096353e+03 7.9829010000e+01 0.0000e+00 -1.0000e+00
       24  1    1    2    0    0 +6.6554374612e+03 -2.8889279415e+03 +6.7710586149e+03 9.9244324719e+03 7.9829010000e+01 0.0000e+00 -1.0000e+00
       22  1    1    2    0    0 -3.3665340071e+01 +2.5203687168e+01 +1.5386444299e+01 4.4780840067e+01 0.0000000000e+00 0.0000e+00 -1.0000e+00
       22  1    1    2    0    0 +2.3378845921e+01 -2.2441436748e+01 +5.6434335957e+01 6.5077052752e+01 0.0000000000e+00 0.0000e+00 1.0000e+00
</event>
<event>
 6      1 +1.4834189e-01 9.61789000e+03 7.81653100e-03 6.96233200e-02
  1000022 -1    0    0    0    0 +0.0000000000e+00 +0.0000000000e+00 +4.4721471353e+01 1.0000100000e+04 1.0000000000e+04 0.0000e+00 1.0000e+00
  1000022 -1    0    0    0    0 -0.0000000000e+00 -0.0000000000e+00 -4.4721471353e+01 1.0000100000e+04 1.0000000000e+04 0.0000e+00 1.0000e+00
      -24  1    1    2    0    0 -1.8666529609e+02 -3.8655044862e+02 +6.1062265143e+02 7.5066495547e+02 7.9829010000e+01 0.0000e+00 1.0000e+00
       24  1    1    2    0    0 +8.4250276814e+03 +2.7396559738e+02 +4.4623582344e+03 9.5380900742e+03 7.9829010000e+01 0.0000e+00 1.0000e+00
       22  1    1    2    0    0 -8.2533253958e+03 +1.0856721923e+02 -5.0824182067e+03 9.6933039650e+03 0.0000000000e+00 0.0000e+00 1.0000e+00
       22  1    1    2    0    0 +1.4963010466e+01 +4.0176320148e+00 +9.4373208757e+00 1.8141005334e+01 0.0000000000e+00 0.0000e+00 -1.0000e+00
</event>
<event>
 6      1 +1.4834189e-01 1.03110800e+04 7.81653100e-03 6.92027800e-02
  1000022 -1    0    0    0    0 +0.0000000000e+00 +0.0000000000e+00 +4.4721471353e+01 1.0000100000e+04 1.0000000000e+04 0.0000e+00 1.0000e+00
  1000022 -1    0    0    0    0 -0.0000000000e+00 -0.0000000000e+00 -4.4721471353e+01 1.0000100000e+04 1.0000000000e+04 0.0000e+00 1.0000e+00
      -24  1    1    2    0    0 -7.3908144280e+02 -9.6596884250e+03 -1.3003102905e+02 9.6891229008e+03 7.9829010000e+01 0.0000e+00 -1.0000e+00
       24  1    1    2    0    0 +7.6940061619e+02 +7.3435214518e+03 -8.2281423967e+01 7.3846074726e+03 7.9829010000e+01 0.0000e+00 -1.0000e+00
       22  1    1    2    0    0 +5.3130774808e+02 +1.0484239839e+02 -2.5337933792e+02 5.9789709863e+02 0.0000000000e+00 0.0000e+00 -1.0000e+00
       22  1    1    2    0    0 -5.6162692147e+02 +2.2113245748e+03 +4.6569179094e+02 2.3285725280e+03 0.0000000000e+00 0.0000e+00 -1.0000e+00
</event>
<event>
 6      1 +1.4834189e-01 1.01827000e+04 7.81653100e-03 6.92781000e-02
  1000022 -1    0    0    0    0 +0.0000000000e+00 +0.0000000000e+00 +4.4721471353e+01 1.0000100000e+04 1.0000000000e+04 0.0000e+00 1.0000e+00
  1000022 -1    0    0    0    0 -0.0000000000e+00 -0.0000000000e+00 -4.4721471353e+01 1.0000100000e+04 1.0000000000e+04 0.0000e+00 1.0000e+00
      -24  1    1    2    0    0 -3.9431362511e+03 -4.8304663120e+03 +1.4408515053e+03 6.4003245244e+03 7.9829010000e+01 0.0000e+00 1.0000e+00
       24  1    1    2    0    0 +3.0966644822e+03 +7.9776162366e+03 -2.8451908558e+03 9.0184907501e+03 7.9829010000e+01 0.0000e+00 1.0000e+00
       22  1    1    2    0    0 +3.8975016479e+02 -3.6357828559e+03 +9.6723823973e+02 3.7823764988e+03 0.0000000000e+00 0.0000e+00 1.0000e+00
       22  1    1    2    0    0 +4.5672160416e+02 +4.8863293133e+02 +4.3710111075e+02 7.9900822668e+02 0.0000000000e+00 0.0000e+00 1.0000e+00
</event>
<event>
 6      1 +1.4834189e-01 1.00319200e+04 7.81653100e-03 6.93680200e-02
  1000022 -1    0    0    0    0 +0.0000000000e+00 +0.0000000000e+00 +4.4721471353e+01 1.0000100000e+04 1.0000000000e+04 0.0000e+00 1.0000e+00
  1000022 -1    0    0    0    0 -0.0000000000e+00 -0.0000000000e+00 -4.4721471353e+01 1.0000100000e+04 1.0000000000e+04 0.0000e+00 1.0000e+00
      -24  1    1    2    0    0 -1.2341760147e+03 +3.0312186140e+03 +9.4153515639e+03 9.9682844293e+03 7.9829010000e+01 0.0000e+00 1.0000e+00
       24  1    1    2    0    0 +1.0248707154e+03 -2.8748533123e+03 -8.8425045129e+03 9.3547528178e+03 7.9829010000e+01 0.0000e+00 1.0000e+00
       22  1    1    2    0    0 +1.6506007388e+02 -6.0360249414e+00 -1.3897782144e+02 2.1586128981e+02 0.0000000000e+00 0.0000e+00 1.0000e+00
       22  1    1    2    0    0 +4.4245225374e+01 -1.5032927678e+02 -4.3386922961e+02 4.6130146306e+02 0.0000000000e+00 0.0000e+00 1.0000e+00
</event>
<event>
 6      1 +1.4834189e-01 1.00239700e+04 7.81653100e-03 6.93728000e-02
  1000022 -1    0    0    0    0 +0.0000000000e+00 +0.0000000000e+00 +4.4721471353e+01 1.0000100000e+04 1.0000000000e+04 0.0000e+00 -1.0000e+00
  1000022 -1    0    0    0    0 -0.0000000000e+00 -0.0000000000e+00 -4.4721471353e+01 1.0000100000e+04 1.0000000000e+04 0.0000e+00 -1.0000e+00
      -24  1    1    2    0    0 +6.9814617541e+03 -6.2652137325e+03 +1.5157855393e+03 9.5025096585e+03 7.9829010000e+01 0.0000e+00 1.0000e+00
       24  1    1    2    0    0 -7.3102912398e+03 +6.3875029515e+03 -1.7475571120e+03 9.8641208679e+03 7.9829010000e+01 0.0000e+00 1.0000e+00
       22  1    1    2    0    0 +4.1236449160e+02 -1.9380279565e+02 +2.5360349293e+02 5.2145827173e+02 0.0000000000e+00 0.0000e+00 -1.0000e+00
       22  1    1    2    0    0 -8.3535005839e+01 +7.1513576644e+01 -2.1831920302e+01 1.1211120189e+02 0.0000000000e+00 0.0000e+00 -1.0000e+00
</event>
<event>
 6      1 +1.4834189e-01 1.00344000e+04 7.81653100e-03 6.93665300e-02
  1000022 -1    0    0    0    0 +0.0000000000e+00 +0.0000000000e+00 +4.4721471353e+01 1.0000100000e+04 1.0000000000e+04 0.0000e+00 1.0000e+00
  1000022 -1    0    0    0    0 -0.0000000000e+00 -0.0000000000e+00 -4.4721471353e+01 1.0000100000e+04 1.0000000000e+04 0.0000e+00 1.0000e+00
      -24  1    1    2    0    0 -9.6571730600e+01 -1.1319521711e+03 -1.1376947606e+03 1.6097713675e+03 7.9829010000e+01 0.0000e+00 -1.0000e+00
       24  1    1    2    0    0 -2.0186059071e+02 +7.3490623978e+03 +6.7276549656e+03 9.9658005114e+03 7.9829010000e+01 0.0000e+00 1.0000e+00
       22  1    1    2    0    0 +2.3916059346e+02 -6.2342149704e+03 -5.5563305883e+03 8.3543667440e+03 0.0000000000e+00 0.0000e+00 1.0000e+00
       22  1    1    2    0    0 +5.9271727857e+01 +1.7104743671e+01 -3.3629616740e+01 7.0261377024e+01 0.0000000000e+00 0.0000e+00 1.0000e+00
</event>
<event>
 6      1 +1.4834189e-01 1.00056200e+04 7.81653100e-03 6.93838600e-02
  1000022 -1    0    0    0    0 +0.0000000000e+00 +0.0000000000e+00 +4.4721471353e+01 1.0000100000e+04 1.0000000000e+04 0.0000e+00 1.0000e+00
  1000022 -1    0    0    0    0 -0.0000000000e+00 -0.0000000000e+00 -4.4721471353e+01 1.0000100000e+04 1.0000000000e+04 0.0000e+00 1.0000e+00
      -24  1    1    2    0    0 -1.2724763423e+01 +2.4453004595e+02 +1.4776934170e+00 2.5754944650e+02 7.9829010000e+01 0.0000e+00 0.0000e+00
       24  1    1    2    0    0 +6.0825471015e+02 -9.9295313170e+03 -5.6572528740e+02 9.9645363033e+03 7.9829010000e+01 0.0000e+00 1.0000e+00
       22  1    1    2    0    0 +1.0783759366e+01 -2.7505924199e+01 -5.4350090413e+00 3.0040050855e+01 0.0000000000e+00 0.0000e+00 1.0000e+00
       22  1    1    2    0    0 -6.0631370610e+02 +9.7125071953e+03 +5.6968260302e+02 9.7480741994e+03 0.0000000000e+00 0.0000e+00 1.0000e+00
</event>
<event>
 6      1 +1.4834189e-01 1.00821900e+04 7.81653100e-03 6.93378600e-02
  1000022 -1    0    0    0    0 +0.0000000000e+00 +0.0000000000e+00 +4.4721471353e+01 1.0000100000e+04 1.0000000000e+04 0.0000e+00 1.0000e+00
  1000022 -1    0    0    0    0 -0.0000000000e+00 -0.0000000000e+00 -4.4721471353e+01 1.0000100000e+04 1.0000000000e+04 0.0000e+00 1.0000e+00
      -24  1    1    2    0    0 -2.2090925418e+03 +3.9620275940e+02 -5.0987203506e+02 2.3029130786e+03 7.9829010000e+01 0.0000e+00 -1.0000e+00
       24  1    1    2    0    0 +3.7947675442e+02 +1.7861239005e+02 +3.9804812263e+02 5.8371223372e+02 7.9829010000e+01 0.0000e+00 -1.0000e+00
       22  1    1    2    0    0 -7.3217396682e+03 +1.1859469851e+03 -1.7249042412e+03 7.6150926890e+03 0.0000000000e+00 0.0000e+00 -1.0000e+00
       22  1    1    2    0    0 +9.1513554556e+03 -1.7607621345e+03 +1.8367281536e+03 9.4984819987e+03 0.0000000000e+00 0.0000e+00 -1.0000e+00
</event>
<event>
 6      1 +1.4834189e-01 8.78708200e+03 7.81653100e-03 7.01770300e-02
  1000022 -1    0    0    0    0 +0.0000000000e+00 +0.0000000000e+00 +4.4721471353e+01 1.0000100000e+04 1.0000000000e+04 0.0000e+00 -1.0000e+00
  1000022 -1    0    0    0    0 -0.0000000000e+00 -0.0000000000e+00 -4.4721471353e+01 1.0000100000e+04 1.0000000000e+04 0.0000e+00 -1.0000e+00
      -24  1    1    2    0    0 +2.0776232600e+03 +7.0607940278e+02 +6.1206729226e+02 2.2794880071e+03 7.9829010000e+01 0.0000e+00 -1.0000e+00
       24  1    1    2    0    0 +2.3056727224e+03 -7.6081478703e+03 +3.0499079026e+03 8.5151835920e+03 7.9829010000e+01 0.0000e+00 -1.0000e+00
       22  1    1    2    0    0 +3.6269736172e+01 -1.0891565937e+02 +4.9105463431e+01 1.2485776370e+02 0.0000000000e+00 0.0000e+00 -1.0000e+00
       22  1    1    2    0    0 -4.4195657186e+03 +7.0109841269e+03 -3.7110806583e+03 9.0806706372e+03 0.0000000000e+00 0.0000e+00 -1.0000e+00
</event>
<event>
 6      1 +1.4834189e-01 1.01215800e+04 7.81653100e-03 6.93143600e-02
  1000022 -1    0    0    0    0 +0.0000000000e+00 +0.0000000000e+00 +4.4721471353e+01 1.0000100000e+04 1.0000000000e+04 0.0000e+00 -1.0000e+00
  1000022 -1    0    0    0    0 -0.0000000000e+00 -0.0000000000e+00 -4.4721471353e+01 1.0000100000e+04 1.0000000000e+04 0.0000e+00 -1.0000e+00
      -24  1    1    2    0    0 -2.1201415077e+03 +1.1223927201e+03 -8.7607162825e+02 2.5551202710e+03 7.9829010000e+01 0.0000e+00 1.0000e+00
       24  1    1    2    0    0 +1.6068862479e+03 -6.9507640579e+02 +1.3945233768e+03 2.2397059501e+03 7.9829010000e+01 0.0000e+00 -1.0000e+00
       22  1    1    2    0    0 -4.6957565142e+03 +1.7066261434e+03 -5.6823111588e+03 7.5664629873e+03 0.0000000000e+00 0.0000e+00 -1.0000e+00
       22  1    1    2    0    0 +5.2090117739e+03 -2.1339424576e+03 +5.1638594102e+03 7.6389107916e+03 0.0000000000e+00 0.0000e+00 -1.0000e+00
</event>
<event>
 6      1 +1.4834189e-01 1.01772300e+04 7.81653100e-03 6.92813400e-02
  1000022 -1    0    0    0    0 +0.0000000000e+00 +0.0000000000e+00 +4.4721471353e+01 1.0000100000e+04 1.0000000000e+04 0.0000e+00 -1.0000e+00
  1000022 -1    0    0    0    0 -0.0000000000e+00 -0.0000000000e+00 -4.4721471353e+01 1.0000100000e+04 1.0000000000e+04 0.0000e+00 -1.0000e+00
      -24  1    1    2    0    0 -7.2536524225e+03 -2.0451654699e+03 +4.7435672357e+03 8.9053903932e+03 7.9829010000e+01 0.0000e+00 1.0000e+00
       24  1    1    2    0    0 +7.4999503282e+03 +2.6441552169e+03 -5.7657192891e+03 9.8229681527e+03 7.9829010000e+01 0.0000e+00 1.0000e+00
       22  1    1    2    0    0 -3.5169506476e+02 -4.9929000602e+02 +8.5116091536e+02 1.0475947845e+03 0.0000000000e+00 0.0000e+00 1.0000e+00
       22  1    1    2    0    0 +1.0539715909e+02 -9.9699741011e+01 +1.7099113811e+02 2.2424666957e+02 0.0000000000e+00 0.0000e+00 -1.0000e+00
</event>
<event>
 6      1 +1.4834189e-01 1.11960700e+04 7.81653100e-03 6.87117900e-02
  1000022 -1    0    0    0    0 +0.0000000000e+00 +0.0000000000e+00 +4.4721471353e+01 1.0000100000e+04 1.0000000000e+04 0.0000e+00 -1.0000e+00
  1000022 -1    0    0    0    0 -0.0000000000e+00 -0.0000000000e+00 -4.4721471353e+01 1.0000100000e+04 1.0000000000e+04 0.0000e+00 -1.0000e+00
      -24  1    1    2    0    0 +6.2974148692e+03 -6.1155412720e+03 -6.7011806395e+02 8.8041302793e+03 7.9829010000e+01 0.0000e+00 1.0000e+00
       24  1    1    2    0    0 -1.2501741841e+03 +2.7692238988e+03 +1.5512231116e+03 3.4123602250e+03 7.9829010000e+01 0.0000e+00 -1.0000e+00
       22  1    1    2    0    0 -2.1769777325e+03 -1.0788858665e+03 +3.6562360356e+01 2.4299307740e+03 0.0000000000e+00 0.0000e+00 1.0000e+00
       22  1    1    2    0    0 -2.8702629526e+03 +4.4252032396e+03 -9.1766740801e+02 5.3537787217e+03 0.0000000000e+00 0.0000e+00 1.0000e+00
</event>
<event>
 6      1 +1.4834189e-01 1.00020600e+04 7.81653100e-03 6.93860100e-02
  1000022 -1    0    0    0    0 +0.0000000000e+00 +0.0000000000e+00 +4.4721471353e+01 1.0000100000e+04 1.0000000000e+04 0.0000e+00 1.0000e+00
  1000022 -1    0    0    0    0 -0.0000000000e+00 -0.0000000000e+00 -4.4721471353e+01 1.0000100000e+04 1.0000000000e+04 0.0000e+00 1.0000e+00
      -24  1    1    2    0    0 -6.2000005316e+03 +6.9103241526e+03 +1.7666189459e+03 9.4509206777e+03 7.9829010000e+01 0.0000e+00 1.0000e+00
       24  1    1    2    0    0 +6.4191320421e+03 -7.1300941216e+03 -1.7746252551e+03 9.7570059866e+03 7.9829010000e+01 0.0000e+00 1.0000e+00
       22  1    1    2    0    0 -3.3625652094e+02 +4.2612568587e+02 +6.9253089259e+01 5.4721799898e+02 0.0000000000e+00 0.0000e+00 -1.0000e+00
       22  1    1    2    0    0 +1.1712501042e+02 -2.0635571692e+02 -6.1246780146e+01 2.4505533671e+02 0.0000000000e+00 0.0000e+00 1.0000e+00
</event>
<event>
 6      1 +1.4834189e-01 1.00408400e+04 7.81653100e-03 6.93626500e-02
  1000022 -1    0    0    0    0 +0.0000000000e+00 +0.0000000000e+00 +4.4721471353e+01 1.0000100000e+04 1.0000000000e+04 0.0000e+00 1.0000e+00
  1000022 -1    0    0    0    0 -0.0000000000e+00 -0.0000000000e+00 -4.4721471353e+01 1.0000100000e+04 1.0000000000e+04 0.0000e+00 1.0000e+00
      -24  1    1    2    0    0 +8.0358066934e+03 +4.9734770069e+03 +8.8347118155e+02 9.4919206039e+03 7.9829010000e+01 0.0000e+00 1.0000e+00
       24  1    1    2    0    0 -8.3192865457e+03 -5.3522213735e+03 -1.1513375614e+03 9.9593550550e+03 7.9829010000e+01 0.0000e+00 1.0000e+00
       22  1    1    2    0    0 +2.8587414684e+01 +1.8466302962e+01 +2.8808306710e+00 3.4154704050e+01 0.0000000000e+00 0.0000e+00 -1.0000e+00
       22  1    1    2    0    0 +2.5489243763e+02 +3.6027806369e+02 +2.6498554918e+02 5.1476963703e+02 0.0000000000e+00 0.0000e+00 -1.0000e+00
</event>
<event>
 6      1 +1.4834189e-01 1.00053300e+04 7.81653100e-03 6.93840400e-02
  1000022 -1    0    0    0    0 +0.0000000000e+00 +0.0000000000e+00 +4.4721471353e+01 1.0000100000e+04 1.0000000000e+04 0.0000e+00 -1.0000e+00
  1000022 -1    0    0    0    0 -0.0000000000e+00 -0.0000000000e+00 -4.4721471353e+01 1.0000100000e+04 1.0000000000e+04 0.0000e+00 -1.0000e+00
      -24  1    1    2    0    0 -7.3797478322e+03 +4.5761595671e+03 -4.9486589667e+03 9.9948743209e+03 7.9829010000e+01 0.0000e+00 -1.0000e+00
       24  1    1    2    0    0 +4.9534146683e+03 -3.0637654586e+03 +3.3145814579e+03 6.7019249901e+03 7.9829010000e+01 0.0000e+00 0.0000e+00
       22  1    1    2    0    0 +1.4525262760e+00 -2.7102786530e+01 +1.9097305538e+01 3.3187014766e+01 0.0000000000e+00 0.0000e+00 1.0000e+00
       22  1    1    2    0    0 +2.4248806376e+03 -1.4852913220e+03 +1.6149802033e+03 3.2702136742e+03 0.0000000000e+00 0.0000e+00 -1.0000e+00
</event>
<event>
 6      1 +1.4834189e-01 1.00194500e+04 7.81653100e-03 6.93755200e-02
  1000022 -1    0    0    0    0 +0.0000000000e+00 +0.0000000000e+00 +4.4721471353e+01 1.0000100000e+04 1.0000000000e+04 0.0000e+00 -1.0000e+00
  1000022 -1    0    0    0    0 -0.0000000000e+00 -0.0000000000e+00 -4.4721471353e+01 1.0000100000e+04 1.0000000000e+04 0.0000e+00 -1.0000e+00
      -24  1    1    2    0    0 +1.5942561281e+03 +7.5838670192e+03 -6.1714244537e+03 9.9070451713e+03 7.9829010000e+01 0.0000e+00 -1.0000e+00
       24  1    1    2    0    0 -1.7616463458e+02 -3.7145522221e+02 +2.9405058321e+02 5.1171415546e+02 7.9829010000e+01 0.0000e+00 -1.0000e+00
       22  1    1    2    0    0 -8.5400321894e+01 +4.3674713675e+01 -5.8600589705e+01 1.1240429132e+02 0.0000000000e+00 0.0000e+00 -1.0000e+00
       22  1    1    2    0    0 -1.3326911716e+03 -7.2560865107e+03 +5.9359744602e+03 9.4690363819e+03 0.0000000000e+00 0.0000e+00 -1.0000e+00
</event>
<event>
 6      1 +1.4834189e-01 1.04557300e+04 7.81653100e-03 6.91192100e-02
  1000022 -1    0    0    0    0 +0.0000000000e+00 +0.0000000000e+00 +4.4721471353e+01 1.0000100000e+04 1.0000000000e+04 0.0000e+00 1.0000e+00
  1000022 -1    0    0    0    0 -0.0000000000e+00 -0.0000000000e+00 -4.4721471353e+01 1.0000100000e+04 1.0000000000e+04 0.0000e+00 1.0000e+00
      -24  1    1    2    0    0 -7.5875589640e+02 +1.6831104426e+02 -1.2564338823e+03 1.4795397559e+03 7.9829010000e+01 0.0000e+00 0.0000e+00
       24  1    1    2    0    0 +4.9645234276e+03 -2.2405880606e+03 +7.3354159486e+03 9.1368171444e+03 7.9829010000e+01 0.0000e+00 1.0000e+00
       22  1    1    2    0    0 -2.4821175638e+02 +9.6791554852e+02 +8.6084842311e+02 1.3189122763e+03 0.0000000000e+00 0.0000e+00 1.0000e+00
       22  1    1    2    0    0 -3.9575557749e+03 +1.1043614678e+03 -6.9398304894e+03 8.0649308233e+03 0.0000000000e+00 0.0000e+00 1.0000e+00
</event>
<event>
 6      1 +1.4834189e-01 1.00054700e+04 7.81653100e-03 6.93839500e-02
  1000022 -1    0    0    0    0 +0.0000000000e+00 +0.0000000000e+00 +4.4721471353e+01 1.0000100000e+04 1.0000000000e+04 0.0000e+00 1.0000e+00
  1000022 -1    0    0    0    0 -0.0000000000e+00 -0.0000000000e+00 -4.4721471353e+01 1.0000100000e+04 1.0000000000e+04 0.0000e+00 1.0000e+00
      -24  1    1    2    0    0 +1.6311960855e+02 +1.2098712015e+03 -1.4066960060e+03 1.8642860980e+03 7.9829010000e+01 0.0000e+00 0.0000e+00
       24  1    1    2    0    0 -1.0667643528e+03 -6.5096859690e+03 +7.5082744829e+03 9.9947264085e+03 7.9829010000e+01 0.0000e+00 -1.0000e+00
       22  1    1    2    0    0 +9.0255281922e+02 +5.2873117167e+03 -6.1065001235e+03 8.1277063517e+03 0.0000000000e+00 0.0000e+00 -1.0000e+00
       22  1    1    2    0    0 +1.0919250352e+00 +1.2503050840e+01 +4.9216465796e+00 1.3481141852e+01 0.0000000000e+00 0.0000e+00 -1.0000e+00
</event>
<event>
 6      1 +1.4834189e-01 1.00143000e+04 7.81653100e-03 6.93786300e-02
  1000022 -1    0    0    0    0 +0.0000000000e+00 +0.0000000000e+00 +4.4721471353e+01 1.0000100000e+04 1.0000000000e+04 0.0000e+00 -1.0000e+00
  1000022 -1    0    0    0    0 -0.0000000000e+00 -0.0000000000e+00 -4.4721471353e+01 1.0000100000e+04 1.0000000000e+04 0.0000e+00 -1.0000e+00
      -24  1    1    2    0    0 +3.1123757055e+03 -8.8278100344e+03 +3.2739261109e+03 9.9167574028e+03 7.9829010000e+01 0.0000e+00 1.0000e+00
       24  1    1    2    0    0 -2.5411597163e+03 +6.7146548840e+03 -2.5609352465e+03 7.6229157756e+03 7.9829010000e+01 0.0000e+00 1.0000e+00
       22  1    1    2    0    0 +8.4034253459e+01 -2.8468899888e+01 +4.0525867804e+01 9.7542708474e+01 0.0000000000e+00 0.0000e+00 1.0000e+00
       22  1    1    2    0    0 -6.5525024270e+02 +2.1416240503e+03 -7.5351673215e+02 2.3629841132e+03 0.0000000000e+00 0.0000e+00 -1.0000e+00
</event>
<event>
 6      1 +1.4834189e-01 1.00202700e+04 7.81653100e-03 6.93750300e-02
  1000022 -1    0    0    0    0 +0.0000000000e+00 +0.0000000000e+00 +4.4721471353e+01 1.0000100000e+04 1.0000000000e+04 0.0000e+00 -1.0000e+00
  1000022 -1    0    0    0    0 -0.0000000000e+00 -0.0000000000e+00 -4.4721471353e+01 1.0000100000e+04 1.0000000000e+04 0.0000e+00 -1.0000e+00
      -24  1    1    2    0    0 +8.9200235864e+03 +2.6004696695e+03 +3.5828276332e+03 9.9585284960e+03 7.9829010000e+01 0.0000e+00 1.0000e+00
       24  1    1    2    0    0 -2.3210000706e+02 +1.5953299775e+01 -1.9762224476e+02 3.1551884811e+02 7.9829010000e+01 0.0000e+00 0.0000e+00
       22  1    1    2    0    0 +1.5745184667e+01 +1.0412258035e+01 +1.0090071838e+01 2.1404100245e+01 0.0000000000e+00 0.0000e+00 1.0000e+00
       22  1    1    2    0    0 -8.7036687641e+03 -2.6268352273e+03 -3.3952954603e+03 9.7047485557e+03 0.0000000000e+00 0.0000e+00 1.0000e+00
</event>
<event>
 6      1 +1.4834189e-01 1.00112600e+04 7.81653100e-03 6.93804600e-02
  1000022 -1    0    0    0    0 +0.0000000000e+00 +0.0000000000e+00 +4.4721471353e+01 1.0000100000e+04 1.0000000000e+04 0.0000e+00 1.0000e+00
  1000022 -1    0    0    0    0 -0.0000000000e+00 -0.0000000000e+00 -4.4721471353e+01 1.0000100000e+04 1.0000000000e+04 0.0000e+00 1.0000e+00
      -24  1    1    2    0    0 -5.5544958299e+03 +4.1978311409e+03 +4.2971828036e+03 8.1820757104e+03 7.9829010000e+01 0.0000e+00 -1.0000e+00
       24  1    1    2    0    0 +6.6043327796e+03 -5.1565573338e+03 -5.4373915614e+03 9.9889386155e+03 7.9829010000e+01 0.0000e+00 -1.0000e+00
       22  1    1    2    0    0 -8.4924107468e+01 +4.1593488074e+01 +1.1529972531e+02 1.4911790280e+02 0.0000000000e+00 0.0000e+00 -1.0000e+00
       22  1    1    2    0    0 -9.6491284220e+02 +9.1713270487e+02 +1.0249090326e+03 1.6800677714e+03 0.0000000000e+00 0.0000e+00 1.0000e+00
</event>
<event>
 6      1 +1.4834189e-01 1.01032700e+04 7.81653100e-03 6.93252800e-02
  1000022 -1    0    0    0    0 +0.0000000000e+00 +0.0000000000e+00 +4.4721471353e+01 1.0000100000e+04 1.0000000000e+04 0.0000e+00 1.0000e+00
  1000022 -1    0    0    0    0 -0.0000000000e+00 -0.0000000000e+00 -4.4721471353e+01 1.0000100000e+04 1.0000000000e+04 0.0000e+00 1.0000e+00
      -24  1    1    2    0    0 -1.0587241888e+03 -1.0990853693e+03 -4.8326801585e+02 1.6027495759e+03 7.9829010000e+01 0.0000e+00 1.0000e+00
       24  1    1    2    0    0 +6.8048359925e+03 +6.4490842320e+03 +3.1696148618e+03 9.8969344426e+03 7.9829010000e+01 0.0000e+00 1.0000e+00
       22  1    1    2    0    0 -4.7960362333e+03 -5.2398567746e+03 -2.4637198499e+03 7.5185090323e+03 0.0000000000e+00 0.0000e+00 1.0000e+00
       22  1    1    2    0    0 -9.5007557037e+02 -1.1014208812e+02 -2.2262699606e+02 9.8200694924e+02 0.0000000000e+00 0.0000e+00 -1.0000e+00
</event>
<event>
 6      1 +1.4834189e-01 1.00127700e+04 7.81653100e-03 6.93795500e-02
  1000022 -1    0    0    0    0 +0.0000000000e+00 +0.0000000000e+00 +4.4721471353e+01 1.0000100000e+04 1.0000000000e+04 0.0000e+00 -1.0000e+00
  1000022 -1    0    0    0    0 -0.0000000000e+00 -0.0000000000e+00 -4.4721471353e+01 1.0000100000e+04 1.0000000000e+04 0.0000e+00 -1.0000e+00
      -24  1    1    2    0    0 +5.8623150347e+03 -2.4902400490e+03 -7.6526768849e+03 9.9568001509e+03 7.9829010000e+01 0.0000e+00 1.0000e+00
       24  1    1    2    0    0 -2.2876843616e+02 -1.8603465852e+01 +3.0196392558e+02 3.8760285024e+02 7.9829010000e+01 0.0000e+00 0.0000e+00
       22  1    1    2    0    0 +1.9708111637e+01 -1.1922007996e+01 -2.0193170771e+01 3.0631814911e+01 0.0000000000e+00 0.0000e+00 1.0000e+00
       22  1    1    2    0    0 -5.6532547102e+03 +2.5207655229e+03 +7.3709061301e+03 9.6251651840e+03 0.0000000000e+00 0.0000e+00 1.0000e+00
</event>
<event>
 6      1 +1.4834189e-01 1.00409400e+04 7.81653100e-03 6.93625900e-02
  1000022 -1    0    0    0    0 +0.0000000000e+00 +0.0000000000e+00 +4.4721471353e+01 1.0000100000e+04 1.0000000000e+04 0.0000e+00 1.0000e+00
  1000022 -1    0    0    0    0 -0.0000000000e+00 -0.0000000000e+00 -4.4721471353e+01 1.0000100000e+04 1.0000000000e+04 0.0000e+00 1.0000e+00
      -24  1    1    2    0    0 -3.0608359496e+02 -4.3103774360e+02 +1.0364904244e+03 1.1662614519e+03 7.9829010000e+01 0.0000e+00 1.0000e+00
       24  1    1    2    0    0 -6.0639077103e+02 +2.9299524694e+03 -9.4988491889e+03 9.9592589997e+03 7.9829010000e+01 0.0000e+00 -1.0000e+00
       22  1    1    2    0    0 +9.2613662357e+02 -2.4908193505e+03 +8.4220511686e+03 8.8313564060e+03 0.0000000000e+00 0.0000e+00 -1.0000e+00
       22  1    1    2    0    0 -1.3662257581e+01 -8.0953753001e+00 +4.0307595813e+01 4.3323142357e+01 0.0000000000e+00 0.0000e+00 -1.0000e+00
</event>
<event>
 6      1 +1.4834189e-01 1.01023700e+04 7.81653100e-03 6.93258100e-02
  1000022 -1    0    0    0    0 +0.0000000000e+00 +0.0000000000e+00 +4.4721471353e+01 1.0000100000e+04 1.0000000000e+04 0.0000e+00 1.0000e+00
  1000022 -1    0    0    0    0 -0.0000000000e+00 -0.0000000000e+00 -4.4721471353e+01 1.0000100000e+04 1.0000000000e+04 0.0000e+00 1.0000e+00
      -24  1    1    2    0    0 +9.7661617158e+03 +1.0486514235e+03 +1.2178170492e+03 9.8978298381e+03 7.9829010000e+01 0.0000e+00 1.0000e+00
       24  1    1    2    0    0 -9.4193760952e+03 -7.4406274412e+02 -8.4070467519e+02 9.4863814182e+03 7.9829010000e+01 0.0000e+00 1.0000e+00
       22  1    1    2    0    0 -5.5926805555e+01 -5.1954925151e+00 -4.3128647898e+00 5.6332952388e+01 0.0000000000e+00 0.0000e+00 -1.0000e+00
       22  1    1    2    0    0 -2.9085881509e+02 -2.9939318690e+02 -3.7279950921e+02 5.5965579130e+02 0.0000000000e+00 0.0000e+00 -1.0000e+00
</event>
<event>
 6      1 +1.4834189e-01 1.02516200e+04 7.81653100e-03 6.92375300e-02
  1000022 -1    0    0    0    0 +0.0000000000e+00 +0.0000000000e+00 +4.4721471353e+01 1.0000100000e+04 1.0000000000e+04 0.0000e+00 -1.0000e+00
  1000022 -1    0    0    0    0 -0.0000000000e+00 -0.0000000000e+00 -4.4721471353e+01 1.0000100000e+04 1.0000000000e+04 0.0000e+00 -1.0000e+00
      -24  1    1    2    0    0 -4.4855255011e+02 -8.8185658889e+02 -5.0520585770e+02 1.1137666107e+03 7.9829010000e+01 0.0000e+00 -1.0000e+00
       24  1    1    2    0    0 -4.2223620044e+03 +6.7641538576e+03 +5.6077039684e+03 9.7485811672e+03 7.9829010000e+01 0.0000e+00 1.0000e+00
       22  1    1    2    0    0 +4.7219719595e+03 -5.7634631228e+03 -5.0275192140e+03 8.9883522295e+03 0.0000000000e+00 0.0000e+00 1.0000e+00
       22  1    1    2    0    0 -5.1057405053e+01 -1.1883414593e+02 -7.4978896672e+01 1.4949999263e+02 0.0000000000e+00 0.0000e+00 -1.0000e+00
</event>
<event>
 6      1 +1.4834189e-01 1.00035800e+04 7.81653100e-03 6.93851000e-02
  1000022 -1    0    0    0    0 +0.0000000000e+00 +0.0000000000e+00 +4.4721471353e+01 1.0000100000e+04 1.0000000000e+04 0.0000e+00 1.0000e+00
  1000022 -1    0    0    0    0 -0.0000000000e+00 -0.0000000000e+00 -4.4721471353e+01 1.0000100000e+04 1.0000000000e+04 0.0000e+00 1.0000e+00
      -24  1    1    2    0    0 -3.7061905895e+03 -7.8324313939e+03 -1.6458950435e+02 8.6669655937e+03 7.9829010000e+01 0.0000e+00 1.0000e+00
       24  1    1    2    0    0 +4.2590123201e+03 +9.0307017837e+03 +2.8084035886e+02 9.9888940643e+03 7.9829010000e+01 0.0000e+00 1.0000e+00
       22  1    1    2    0    0 -5.4225001569e+02 -1.2084493963e+03 -1.1665535853e+02 1.3296591652e+03 0.0000000000e+00 0.0000e+00 1.0000e+00
       22  1    1    2    0    0 -1.0571714973e+01 +1.0179006516e+01 +4.0450401696e-01 1.4681176881e+01 0.0000000000e+00 0.0000e+00 -1.0000e+00
</event>
<event>
 6      1 +1.4834189e-01 8.21397200e+03 7.81653100e-03 7.05962700e-02
  1000022 -1    0    0    0    0 +0.0000000000e+00 +0.0000000000e+00 +4.4721471353e+01 1.0000100000e+04 1.0000000000e+04 0.0000e+00 1.0000e+00
  1000022 -1    0    0    0    0 -0.0000000000e+00 -0.0000000000e+00 -4.4721471353e+01 1.0000100000e+04 1.0000000000e+04 0.0000e+00 1.0000e+00
      -24  1    1    2    0    0 -2.4314735021e+03 -2.4323712916e+03 -1.9675582911e+02 3.4458060042e+03 7.9829010000e+01 0.0000e+00 1.0000e+00
       24  1    1    2    0    0 -4.6776821034e+02 +7.9177214942e+03 -2.4857372665e+03 8.3123031217e+03 7.9829010000e+01 0.0000e+00 1.0000e+00
       22  1    1    2    0    0 +1.0386400761e+02 +4.3610206762e+02 -7.3111726472e+02 8.5761599812e+02 0.0000000000e+00 0.0000e+00 1.0000e+00
       22  1    1    2    0    0 +2.7953777048e+03 -5.9214522702e+03 +3.4136103604e+03 7.3844748759e+03 0.0000000000e+00 0.0000e+00 1.0000e+00
</event>
<event>
 6      1 +1.4834189e-01 1.00327300e+04 7.81653100e-03 6.93675300e-02
  1000022 -1    0    0    0    0 +0.0000000000e+00 +0.0000000000e+00 +4.4721471353e+01 1.0000100000e+04 1.0000000000e+04 0.0000e+00 -1.0000e+00
  1000022 -1    0    0    0    0 -0.0000000000e+00 -0.0000000000e+00 -4.4721471353e+01 1.0000100000e+04 1.0000000000e+04 0.0000e+00 -1.0000e+00
      -24  1    1    2    0    0 +8.0276342588e+03 +4.6725371755e+03 -7.7913138957e+02 9.3214233807e+03 7.9829010000e+01 0.0000e+00 1.0000e+00
       24  1    1    2    0    0 -8.4419894048e+03 -5.2103344644e+03 +9.6397140678e+02 9.9674662721e+03 7.9829010000e+01 0.0000e+00 1.0000e+00
       22  1    1    2    0    0 +7.0666884235e+01 +4.1347961743e+01 -8.6983577306e+00 8.2335435233e+01 0.0000000000e+00 0.0000e+00 -1.0000e+00
       22  1    1    2    0    0 +3.4368826177e+02 +4.9644932718e+02 -1.7614165948e+02 6.2897491201e+02 0.0000000000e+00 0.0000e+00 1.0000e+00
</event>
<event>
 6      1 +1.4834189e-01 1.00144900e+04 7.81653100e-03 6.93785100e-02
  1000022 -1    0    0    0    0 +0.0000000000e+00 +0.0000000000e+00 +4.4721471353e+01 1.0000100000e+04 1.0000000000e+04 0.0000e+00 1.0000e+00
  1000022 -1    0    0    0    0 -0.0000000000e+00 -0.0000000000e+00 -4.4721471353e+01 1.0000100000e+04 1.0000000000e+04 0.0000e+00 1.0000e+00
      -24  1    1    2    0    0 +1.3924171662e+03 -1.7219853931e+03 -5.6518247361e+03 6.0707128722e+03 7.9829010000e+01 0.0000e+00 -1.0000e+00
       24  1    1    2    0    0 -2.0301710931e+03 +2.8930599203e+03 +9.3389816528e+03 9.9857068529e+03 7.9829010000e+01 0.0000e+00 -1.0000e+00
       22  1    1    2    0    0 +6.2696473822e+02 -7.4948884205e+02 -2.6240241621e+03 2.8000573406e+03 0.0000000000e+00 0.0000e+00 -1.0000e+00
       22  1    1    2    0    0 +1.0789188761e+01 -4.2158568514e+02 -1.0631327546e+03 1.1437229343e+03 0.0000000000e+00 0.0000e+00 -1.0000e+00
</event>
<event>
 6      1 +1.4834189e-01 1.00312600e+04 7.81653100e-03 6.93684100e-02
  1000022 -1    0    0    0    0 +0.0000000000e+00 +0.0000000000e+00 +4.4721471353e+01 1.0000100000e+04 1.0000000000e+04 0.0000e+00 -1.0000e+00
  1000022 -1    0    0    0    0 -0.0000000000e+00 -0.0000000000e+00 -4.4721471353e+01 1.0000100000e+04 1.0000000000e+04 0.0000e+00 -1.0000e+00
      -24  1    1    2    0    0 -7.7326105266e+03 -6.1292264799e+03 +1.0108414056e+03 9.9191156771e+03 7.9829010000e+01 0.0000e+00 1.0000e+00
       24  1    1    2    0    0 +6.6109155013e+03 +5.3511675237e+03 -8.6056071853e+02 8.5490429321e+03 7.9829010000e+01 0.0000e+00 1.0000e+00
       22  1    1    2    0    0 +2.4610011125e+01 -1.0892418290e+02 +1.0280302277e+01 1.1214194079e+02 0.0000000000e+00 0.0000e+00 1.0000e+00
       22  1    1    2    0    0 +1.0970850141e+03 +8.8698313905e+02 -1.6056098931e+02 1.4198994501e+03 0.0000000000e+00 0.0000e+00 -1.0000e+00
</event>
<event>
 6      1 +1.4834189e-01 1.00060000e+04 7.81653100e-03 6.93836300e-02
  1000022 -1    0    0    0    0 +0.0000000000e+00 +0.0000000000e+00 +4.4721471353e+01 1.0000100000e+04 1.0000000000e+04 0.0000e+00 1.0000e+00
  1000022 -1    0    0    0    0 -0.0000000000e+00 -0.0000000000e+00 -4.4721471353e+01 1.0000100000e+04 1.0000000000e+04 0.0000e+00 1.0000e+00
      -24  1    1    2    0    0 +4.1944079015e+03 -6.3054513474e+03 -5.2037608624e+03 9.1889756841e+03 7.9829010000e+01 0.0000e+00 1.0000e+00
       24  1    1    2    0    0 -1.2073898559e+03 +1.9550675953e+03 +1.3496782806e+03 2.6660989663e+03 7.9829010000e+01 0.0000e+00 1.0000e+00
       22  1    1    2    0    0 -3.3587778716e+03 +4.8857984903e+03 +4.3268573310e+03 7.3398985035e+03 0.0000000000e+00 0.0000e+00 1.0000e+00
       22  1    1    2    0    0 +3.7175982605e+02 -5.3541473822e+02 -4.7277474921e+02 8.0522684609e+02 0.0000000000e+00 0.0000e+00 1.0000e+00
</event>
<event>
 6      1 +1.4834189e-01 1.00774400e+04 7.81653100e-03 6.93407100e-02
  1000022 -1    0    0    0    0 +0.0000000000e+00 +0.0000000000e+00 +4.4721471353e+01 1.0000100000e+04 1.0000000000e+04 0.0000e+00 1.0000e+00
  1000022 -1    0    0    0    0 -0.0000000000e+00 -0.0000000000e+00 -4.4721471353e+01 1.0000100000e+04 1.0000000000e+04 0.0000e+00 1.0000e+00
      -24  1    1    2    0    0 -2.5168971783e+03 +3.2461853810e+03 -7.3215614578e+03 8.3954824629e+03 7.9829010000e+01 0.0000e+00 -1.0000e+00
       24  1    1    2    0    0 +3.5857045814e+03 -3.5089894732e+03 +8.5606393516e+03 9.9227618760e+03 7.9829010000e+01 0.0000e+00 -1.0000e+00
       22  1    1    2    0    0 -9.8621710008e+02 +1.6479160029e+02 -1.0214150419e+03 1.4293596916e+03 0.0000000000e+00 0.0000e+00 -1.0000e+00
       22  1    1    2    0    0 -8.2590303067e+01 +9.8012491908e+01 -2.1766285186e+02 2.5259596950e+02 0.0000000000e+00 0.0000e+00 -1.0000e+00
</event>
<event>
 6      1 +1.4834189e-01 1.00066900e+04 7.81653100e-03 6.93832200e-02
  1000022 -1    0    0    0    0 +0.0000000000e+00 +0.0000000000e+00 +4.4721471353e+01 1.0000100000e+04 1.0000000000e+04 0.0000e+00 1.0000e+00
  1000022 -1    0    0    0    0 -0.0000000000e+00 -0.0000000000e+00 -4.4721471353e+01 1.0000100000e+04 1.0000000000e+04 0.0000e+00 1.0000e+00
      -24  1    1    2    0    0 +2.7485044248e+03 +3.2121586960e+03 +2.2666775198e+03 4.7975451755e+03 7.9829010000e+01 0.0000e+00 1.0000e+00
       24  1    1    2    0    0 -5.3629942174e+03 -7.0306194304e+03 -4.6553877206e+03 9.9935140992e+03 7.9829010000e+01 0.0000e+00 1.0000e+00
       22  1    1    2    0    0 +2.6072391664e+03 +3.8058684861e+03 +2.3877413807e+03 5.1945779334e+03 0.0000000000e+00 0.0000e+00 1.0000e+00
       22  1    1    2    0    0 +7.2506261599e+00 +1.2592248274e+01 +9.6882007648e-01 1.4562791925e+01 0.0000000000e+00 0.0000e+00 1.0000e+00
</event>
<event>
 6      1 +1.4834189e-01 1.11647300e+04 7.81653100e-03 6.87283900e-02
  1000022 -1    0    0    0    0 +0.0000000000e+00 +0.0000000000e+00 +4.4721471353e+01 1.0000100000e+04 1.0000000000e+04 0.0000e+00 1.0000e+00
  1000022 -1    0    0    0    0 -0.0000000000e+00 -0.0000000000e+00 -4.4721471353e+01 1.0000100000e+04 1.0000000000e+04 0.0000e+00 1.0000e+00
      -24  1    1    2    0    0 -6.3438965213e+03 +2.9996336663e+03 +3.3557659547e+02 7.0257960067e+03 7.9829010000e+01 0.0000e+00 1.0000e+00
       24  1    1    2    0    0 +7.5231719630e+03 -3.3226177562e+03 +3.2282060561e+03 8.8354735102e+03 7.9829010000e+01 0.0000e+00 1.0000e+00
       22  1    1    2    0    0 -6.5186144423e+02 +7.3414441100e+01 -3.4896362541e+03 3.5507568501e+03 0.0000000000e+00 0.0000e+00 1.0000e+00
       22  1    1    2    0    0 -5.2741399744e+02 +2.4956964884e+02 -7.4146397506e+01 5.8817363302e+02 0.0000000000e+00 0.0000e+00 1.0000e+00
</event>
<event>
 6      1 +1.4834189e-01 1.01006600e+04 7.81653100e-03 6.93268300e-02
  1000022 -1    0    0    0    0 +0.0000000000e+00 +0.0000000000e+00 +4.4721471353e+01 1.0000100000e+04 1.0000000000e+04 0.0000e+00 -1.0000e+00
  1000022 -1    0    0    0    0 -0.0000000000e+00 -0.0000000000e+00 -4.4721471353e+01 1.0000100000e+04 1.0000000000e+04 0.0000e+00 -1.0000e+00
      -24  1    1    2    0    0 +1.8434808186e+02 +9.5190383302e+03 +2.6239749750e+03 9.8761172679e+03 7.9829010000e+01 0.0000e+00 1.0000e+00
       24  1    1    2    0    0 -4.7637467949e+02 -9.0112318384e+03 -2.8446258717e+03 9.4618973309e+03 7.9829010000e+01 0.0000e+00 1.0000e+00
       22  1    1    2    0    0 -2.2499311461e+00 +1.9592311899e+01 +1.2637212843e+01 2.3422639137e+01 0.0000000000e+00 0.0000e+00 1.0000e+00
       22  1    1    2    0    0 +2.9427652877e+02 -5.2739880373e+02 +2.0801368378e+02 6.3876276206e+02 0.0000000000e+00 0.0000e+00 -1.0000e+00
</event>
<event>
 6      1 +1.4834189e-01 1.00399900e+04 7.81653100e-03 6.93631700e-02
  1000022 -1    0    0    0    0 +0.0000000000e+00 +0.0000000000e+00 +4.4721471353e+01 1.0000100000e+04 1.0000000000e+04 0.0000e+00 1.0000e+00
  1000022 -1    0    0    0    0 -0.0000000000e+00 -0.0000000000e+00 -4.4721471353e+01 1.0000100000e+04 1.0000000000e+04 0.0000e+00 1.0000e+00
      -24  1    1    2    0    0 -2.9714363683e+03 -7.6574575488e+03 +5.6332368023e+03 9.9602118323e+03 7.9829010000e+01 0.0000e+00 1.0000e+00
       24  1    1    2    0    0 +2.9100541938e+03 +7.6587178061e+03 -5.4780771119e+03 9.8559664853e+03 7.9829010000e+01 0.0000e+00 1.0000e+00
       22  1    1    2    0    0 +1.3248672111e+01 +2.3614572929e+01 -9.6389551652e+00 2.8741691390e+01 0.0000000000e+00 0.0000e+00 -1.0000e+00
       22  1    1    2    0    0 +4.8133502357e+01 -2.4874830231e+01 -1.4552073524e+02 1.5527999103e+02 0.0000000000e+00 0.0000e+00 1.0000e+00
</event>
<event>
 6      1 +1.4834189e-01 1.00117400e+04 7.81653100e-03 6.93801700e-02
  1000022 -1    0    0    0    0 +0.0000000000e+00 +0.0000000000e+00 +4.4721471353e+01 1.0000100000e+04 1.0000000000e+04 0.0000e+00 -1.0000e+00
  1000022 -1    0    0    0    0 -0.0000000000e+00 -0.0000000000e+00 -4.4721471353e+01 1.0000100000e+04 1.0000000000e+04 0.0000e+00 -1.0000e+00
      -24  1    1    2    0    0 -4.6880344179e+03 -4.4218741419e+03 +7.5665765197e+03 9.9393204259e+03 7.9829010000e+01 0.0000e+00 1.0000e+00
       24  1    1    2    0    0 +4.7415135602e+03 +4.4304809575e+03 -7.5820186454e+03 9.9802049963e+03 7.9829010000e+01 0.0000e+00 1.0000e+00
       22  1    1    2    0    0 -2.3367423538e+01 +8.9048272631e+00 -1.9215498992e+01 3.1536769538e+01 0.0000000000e+00 0.0000e+00 1.0000e+00
       22  1    1    2    0    0 -3.0111718842e+01 -1.7511642931e+01 +3.4657624729e+01 4.9137808271e+01 0.0000000000e+00 0.0000e+00 -1.0000e+00
</event>
<event>
 6      1 +1.4834189e-01 1.00072100e+04 7.81653100e-03 6.93829000e-02
  1000022 -1    0    0    0    0 +0.0000000000e+00 +0.0000000000e+00 +4.4721471353e+01 1.0000100000e+04 1.0000000000e+04 0.0000e+00 1.0000e+00
  1000022 -1    0    0    0    0 -0.0000000000e+00 -0.0000000000e+00 -4.4721471353e+01 1.0000100000e+04 1.0000000000e+04 0.0000e+00 1.0000e+00
      -24  1    1    2    0    0 -2.6767751961e+02 +6.4472986484e+03 -7.2049481393e+03 9.6724847623e+03 7.9829010000e+01 0.0000e+00 -1.0000e+00
       24  1    1    2    0    0 +2.7273087330e+02 -6.5896643659e+03 +7.5070240424e+03 9.9929896041e+03 7.9829010000e+01 0.0000e+00 -1.0000e+00
       22  1    1    2    0    0 -8.0119667959e+00 +1.3262992073e+02 -2.8959644242e+02 3.1862358191e+02 0.0000000000e+00 0.0000e+00 -1.0000e+00
       22  1    1    2    0    0 +2.9586131039e+00 +9.7357967336e+00 -1.2479460658e+01 1.6102051666e+01 0.0000000000e+00 0.0000e+00 -1.0000e+00
</event>
<event>
 6      1 +1.4834189e-01 1.00002200e+04 7.81653100e-03 6.93871200e-02
  1000022 -1    0    0    0    0 +0.0000000000e+00 +0.0000000000e+00 +4.4721471353e+01 1.0000100000e+04 1.0000000000e+04 0.0000e+00 1.0000e+00
  1000022 -1    0    0    0    0 -0.0000000000e+00 -0.0000000000e+00 -4.4721471353e+01 1.0000100000e+04 1.0000000000e+04 0.0000e+00 1.0000e+00
      -24  1    1    2    0    0 +1.0015420873e+03 -9.2437398640e+03 +3.0540506808e+03 9.7868999922e+03 7.9829010000e+01 0.0000e+00 -1.0000e+00
       24  1    1    2    0    0 -1.0334691256e+03 +9.4049703447e+03 -3.1060748088e+03 9.9586946437e+03 7.9829010000e+01 0.0000e+00 -1.0000e+00
       22  1    1    2    0    0 +4.3123037013e+01 -2.0101122606e+02 +5.6036066042e+01 2.1308484231e+02 0.0000000000e+00 0.0000e+00 -1.0000e+00
       22  1    1    2    0    0 -1.1195998690e+01 +3.9780745305e+01 -4.0119379903e+00 4.1520521795e+01 0.0000000000e+00 0.0000e+00 1.0000e+00
</event>
<event>
 6      1 +1.4834189e-01 1.03722500e+04 7.81653100e-03 6.91672700e-02
  1000022 -1    0    0    0    0 +0.0000000000e+00 +0.0000000000e+00 +4.4721471353e+01 1.0000100000e+04 1.0000000000e+04 0.0000e+00 -1.0000e+00
  1000022 -1    0    0    0    0 -0.0000000000e+00 -0.0000000000e+00 -4.4721471353e+01 1.0000100000e+04 1.0000000000e+04 0.0000e+00 -1.0000e+00
      -24  1    1    2    0    0 -8.7366973093e+03 -1.7862140048e+02 +4.0409493615e+03 9.6279504513e+03 7.9829010000e+01 0.0000e+00 1.0000e+00
       24  1    1    2    0    0 +2.5979891463e+03 +1.3349545547e+03 -2.6324539432e+03 3.9329171999e+03 7.9829010000e+01 0.0000e+00 1.0000e+00
       22  1    1    2    0    0 +6.1181796624e+03 -1.1998981747e+03 -1.4047675321e+03 6.3910288554e+03 0.0000000000e+00 0.0000e+00 1.0000e+00
       22  1    1    2    0    0 +2.0528500660e+01 +4.3565020449e+01 -3.7278861240e+00 4.8303493466e+01 0.0000000000e+00 0.0000e+00 -1.0000e+00
</event>
<event>
 6      1 +1.4834189e-01 1.00274100e+04 7.81653100e-03 6.93707300e-02
  1000022 -1    0    0    0    0 +0.0000000000e+00 +0.0000000000e+00 +4.4721471353e+01 1.0000100000e+04 1.0000000000e+04 0.0000e+00 1.0000e+00
  1000022 -1    0    0    0    0 -0.0000000000e+00 -0.0000000000e+00 -4.4721471353e+01 1.0000100000e+04 1.0000000000e+04 0.0000e+00 1.0000e+00
      -24  1    1    2    0    0 -7.1163880364e+03 +5.9218119366e+03 +3.4063860962e+03 9.8651241353e+03 7.9829010000e+01 0.0000e+00 -1.0000e+00
       24  1    1    2    0    0 +6.5071360431e+03 -5.7956745478e+03 -3.5729193216e+03 9.4183219363e+03 7.9829010000e+01 0.0000e+00 -1.0000e+00
       22  1    1    2    0    0 +5.9035505428e+02 -1.3688043737e+02 +6.1083011651e+01 6.0908659365e+02 0.0000000000e+00 0.0000e+00 -1.0000e+00
       22  1    1    2    0    0 +1.8896938985e+01 +1.0743048517e+01 +1.0545021371e+02 1.0766733472e+02 0.0000000000e+00 0.0000e+00 -1.0000e+00
</event>
<event>
 6      1 +1.4834189e-01 1.00176400e+04 7.81653100e-03 6.93766100e-02
  1000022 -1    0    0    0    0 +0.0000000000e+00 +0.0000000000e+00 +4.4721471353e+01 1.0000100000e+04 1.0000000000e+04 0.0000e+00 1.0000e+00
  1000022 -1    0    0    0    0 -0.0000000000e+00 -0.0000000000e+00 -4.4721471353e+01 1.0000100000e+04 1.0000000000e+04 0.0000e+00 1.0000e+00
      -24  1    1    2    0    0 +4.8399168116e+03 -3.7621439098e+03 +7.8396995618e+03 9.9521748091e+03 7.9829010000e+01 0.0000e+00 1.0000e+00
       24  1    1    2    0    0 -4.8708564702e+03 +3.7126902367e+03 -7.8483151342e+03 9.9554876658e+03 7.9829010000e+01 0.0000e+00 1.0000e+00
       22  1    1    2    0    0 -1.2638450194e+01 +1.0850260044e+01 -2.1335205629e+01 2.7067500172e+01 0.0000000000e+00 0.0000e+00 -1.0000e+00
       22  1    1    2    0    0 +4.3578108797e+01 +3.8603413024e+01 +2.9950778035e+01 6.5470024961e+01 0.0000000000e+00 0.0000e+00 1.0000e+00
</event>
<event>
 6      1 +1.4834189e-01 1.00001100e+04 7.81653100e-03 6.93871900e-02
  1000022 -1    0    0    0    0 +0.0000000000e+00 +0.0000000000e+00 +4.4721471353e+01 1.0000100000e+04 1.0000000000e+04 0.0000e+00 1.0000e+00
  1000022 -1    0    0    0    0 -0.0000000000e+00 -0.0000000000e+00 -4.4721471353e+01 1.0000100000e+04 1.0000000000e+04 0.0000e+00 1.0000e+00
      -24  1    1    2    0    0 -1.3789421121e+03 -5.0952215355e+03 -8.3904989709e+03 9.9131029197e+03 7.9829010000e+01 0.0000e+00 -1.0000e+00
       24  1    1    2    0    0 +1.3643838914e+03 +5.0296571469e+03 +8.2967863092e+03 9.7980625712e+03 7.9829010000e+01 0.0000e+00 -1.0000e+00
       22  1    1    2    0    0 -1.4748175958e+01 -4.2134259265e+01 -7.4682757092e+01 8.7007578432e+01 0.0000000000e+00 0.0000e+00 1.0000e+00
       22  1    1    2    0    0 +2.9306396602e+01 +1.0769864783e+02 +1.6839541885e+02 2.0202693067e+02 0.0000000000e+00 0.0000e+00 -1.0000e+00
</event>
<event>
 6      1 +1.4834189e-01 1.00400300e+04 7.81653100e-03 6.93631400e-02
  1000022 -1    0    0    0    0 +0.0000000000e+00 +0.0000000000e+00 +4.4721471353e+01 1.0000100000e+04 1.0000000000e+04 0.0000e+00 1.0000e+00
  1000022 -1    0    0    0    0 -0.0000000000e+00 -0.0000000000e+00 -4.4721471353e+01 1.0000100000e+04 1.0000000000e+04 0.0000e+00 1.0000e+00
      -24  1    1    2    0    0 +7.2005949149e+03 +1.8677183387e+03 +3.8941940696e+03 8.3969077072e+03 7.9829010000e+01 0.0000e+00 0.0000e+00
       24  1    1    2    0    0 -8.5790917609e+03 -2.2630000536e+03 -4.5251106138e+03 9.9601698490e+03 7.9829010000e+01 0.0000e+00 1.0000e+00
       22  1    1    2    0    0 +1.0040987543e+01 +6.5882916085e+01 -4.6289007834e+01 8.1142173430e+01 0.0000000000e+00 0.0000e+00 -1.0000e+00
       22  1    1    2    0    0 +1.3684558584e+03 +3.2939879887e+02 +6.7720555200e+02 1.5619802703e+03 0.0000000000e+00 0.0000e+00 1.0000e+00
</event>
<event>
 6      1 +1.4834189e-01 1.04116100e+04 7.81653100e-03 6.91445500e-02
  1000022 -1    0    0    0    0 +0.0000000000e+00 +0.0000000000e+00 +4.4721471353e+01 1.0000100000e+04 1.0000000000e+04 0.0000e+00 1.0000e+00
  1000022 -1    0    0    0    0 -0.0000000000e+00 -0.0000000000e+00 -4.4721471353e+01 1.0000100000e+04 1.0000000000e+04 0.0000e+00 1.0000e+00
      -24  1    1    2    0    0 -6.2176649724e+03 -5.1044104435e+03 -5.2173052142e+03 9.5885874900e+03 7.9829010000e+01 0.0000e+00 -1.0000e+00
       24  1    1    2    0    0 +3.0804500407e+03 +1.4539231789e+03 +1.3302135293e+03 3.6577186562e+03 7.9829010000e+01 0.0000e+00 -1.0000e+00
       22  1    1    2    0    0 +8.9213428052e+02 +1.2582316799e+03 -1.5245441705e+02 1.5499331870e+03 0.0000000000e+00 0.0000e+00 -1.0000e+00
       22  1    1    2    0    0 +2.2450806512e+03 +2.3922555847e+03 +4.0395461019e+03 5.2039606668e+03 0.0000000000e+00 0.0000e+00 -1.0000e+00
</event>
<event>
 6      1 +1.4834189e-01 1.01020600e+04 7.81653100e-03 6.93259900e-02
  1000022 -1    0    0    0    0 +0.0000000000e+00 +0.0000000000e+00 +4.4721471353e+01 1.0000100000e+04 1.0000000000e+04 0.0000e+00 1.0000e+00
  1000022 -1    0    0    0    0 -0.0000000000e+00 -0.0000000000e+00 -4.4721471353e+01 1.0000100000e+04 1.0000000000e+04 0.0000e+00 1.0000e+00
      -24  1    1    2    0    0 -5.6429485162e+03 -4.2411778568e+03 +3.1245573393e+03 7.7200834715e+03 7.9829010000e+01 0.0000e+00 -1.0000e+00
       24  1    1    2    0    0 +7.5833698839e+03 +4.6658501577e+03 -4.3230917657e+03 9.8981387935e+03 7.9829010000e+01 0.0000e+00 -1.0000e+00
       22  1    1    2    0    0 -5.6118364667e+01 +7.3647994550e+01 -2.3919642285e+00 9.2622996319e+01 0.0000000000e+00 0.0000e+00 -1.0000e+00
       22  1    1    2    0    0 -1.8843030030e+03 -4.9832029544e+02 +1.2009263906e+03 2.2893547387e+03 0.0000000000e+00 0.0000e+00 -1.0000e+00
</event>
<event>
 6      1 +1.4834189e-01 1.01142800e+04 7.81653100e-03 6.93187100e-02
  1000022 -1    0    0    0    0 +0.0000000000e+00 +0.0000000000e+00 +4.4721471353e+01 1.0000100000e+04 1.0000000000e+04 0.0000e+00 1.0000e+00
  1000022 -1    0    0    0    0 -0.0000000000e+00 -0.0000000000e+00 -4.4721471353e+01 1.0000100000e+04 1.0000000000e+04 0.0000e+00 1.0000e+00
      -24  1    1    2    0    0 +4.9611448879e+03 -3.4249369561e+03 +7.7287898146e+03 9.8022301759e+03 7.9829010000e+01 0.0000e+00 1.0000e+00
       24  1    1    2    0    0 -5.1381331369e+03 +3.6278681656e+03 -7.6264832210e+03 9.8859222408e+03 7.9829010000e+01 0.0000e+00 1.0000e+00
       22  1    1    2    0    0 +1.0088150516e+01 +3.4784337836e+00 +1.7754076443e+01 2.0714186269e+01 0.0000000000e+00 0.0000e+00 -1.0000e+00
       22  1    1    2    0    0 +1.6690009853e+02 -2.0640964329e+02 -1.2006067003e+02 2.9133339703e+02 0.0000000000e+00 0.0000e+00 -1.0000e+00
</event>
<event>
 6      1 +1.4834189e-01 1.01130400e+04 7.81653100e-03 6.93194500e-02
  1000022 -1    0    0    0    0 +0.0000000000e+00 +0.0000000000e+00 +4.4721471353e+01 1.0000100000e+04 1.0000000000e+04 0.0000e+00 1.0000e+00
  1000022 -1    0    0    0    0 -0.0000000000e+00 -0.0000000000e+00 -4.4721471353e+01 1.0000100000e+04 1.0000000000e+04 0.0000e+00 1.0000e+00
      -24  1    1    2    0    0 +9.1200073865e+02 +1.5859591283e+03 -2.1710009077e+03 2.8401812118e+03 7.9829010000e+01 0.0000e+00 1.0000e+00
       24  1    1    2    0    0 -5.8369212860e+03 -5.6863567659e+03 +5.5253967985e+03 9.8458461201e+03 7.9829010000e+01 0.0000e+00 1.0000e+00
       22  1    1    2    0    0 -3.0777272045e+01 -1.2975513439e+01 +2.4315679276e+01 4.1314122067e+01 0.0000000000e+00 0.0000e+00 1.0000e+00
       22  1    1    2    0    0 +4.9556978194e+03 +4.1133731510e+03 -3.3787115701e+03 7.2728585460e+03 0.0000000000e+00 0.0000e+00 1.0000e+00
</event>
<event>
 6      1 +1.4834189e-01 1.01180400e+04 7.81653100e-03 6.93164700e-02
  1000022 -1    0    0    0    0 +0.0000000000e+00 +0.0000000000e+00 +4.4721471353e+01 1.0000100000e+04 1.0000000000e+04 0.0000e+00 -1.0000e+00
  1000022 -1    0    0    0    0 -0.0000000000e+00 -0.0000000000e+00 -4.4721471353e+01 1.0000100000e+04 1.0000000000e+04 0.0000e+00 -1.0000e+00
      -24  1    1    2    0    0 -1.1392490147e+03 -4.0802415734e+03 -7.1850630388e+03 8.3413286206e+03 7.9829010000e+01 0.0000e+00 -1.0000e+00
       24  1    1    2    0    0 +2.8272489396e+02 +2.2748957273e+03 +4.7562583251e+03 5.2804781849e+03 7.9829010000e+01 0.0000e+00 -1.0000e+00
       22  1    1    2    0    0 +3.6036484008e+02 +2.0134471095e+03 +4.1220922597e+03 4.6016819402e+03 0.0000000000e+00 0.0000e+00 -1.0000e+00
       22  1    1    2    0    0 +4.9615928067e+02 -2.0810126345e+02 -1.6932875460e+03 1.7767112543e+03 0.0000000000e+00 0.0000e+00 1.0000e+00
</event>
<event>
 6      1 +1.4834189e-01 1.01887000e+04 7.81653100e-03 6.92745600e-02
  1000022 -1    0    0    0    0 +0.0000000000e+00 +0.0000000000e+00 +4.4721471353e+01 1.0000100000e+04 1.0000000000e+04 0.0000e+00 1.0000e+00
  1000022 -1    0    0    0    0 -0.0000000000e+00 -0.0000000000e+00 -4.4721471353e+01 1.0000100000e+04 1.0000000000e+04 0.0000e+00 1.0000e+00
      -24  1    1    2    0    0 +2.6466099482e+02 +1.0732609681e+03 +1.3225079097e+03 1.7254954042e+03 7.9829010000e+01 0.0000e+00 1.0000e+00
       24  1    1    2    0    0 +3.4262363355e+02 -3.7356898406e+02 -2.6013577229e+03 2.6514862650e+03 7.9829010000e+01 0.0000e+00 0.0000e+00
       22  1    1    2    0    0 +1.0029691433e+03 -9.4524051796e+02 -7.0261231978e+03 7.1600163359e+03 0.0000000000e+00 0.0000e+00 1.0000e+00
       22  1    1    2    0    0 -1.6102537717e+03 +2.4554853389e+02 +8.3049730111e+03 8.4632019949e+03 0.0000000000e+00 0.0000e+00 1.0000e+00
</event>
<event>
 6      1 +1.4834189e-01 1.01503600e+04 7.81653100e-03 6.92972600e-02
  1000022 -1    0    0    0    0 +0.0000000000e+00 +0.0000000000e+00 +4.4721471353e+01 1.0000100000e+04 1.0000000000e+04 0.0000e+00 -1.0000e+00
  1000022 -1    0    0    0    0 -0.0000000000e+00 -0.0000000000e+00 -4.4721471353e+01 1.0000100000e+04 1.0000000000e+04 0.0000e+00 -1.0000e+00
      -24  1    1    2    0    0 -1.9844622148e+03 +4.0088690060e+03 -8.6443489041e+03 9.7334609280e+03 7.9829010000e+01 0.0000e+00 -1.0000e+00
       24  1    1    2    0    0 +4.9363521814e+02 -1.1847073746e+03 +1.6286194285e+03 2.0750858310e+03 7.9829010000e+01 0.0000e+00 -1.0000e+00
       22  1    1    2    0    0 +1.8633029916e+03 -2.9908312712e+03 +6.9303542234e+03 7.7747526902e+03 0.0000000000e+00 0.0000e+00 -1.0000e+00
       22  1    1    2    0    0 -3.7247599494e+02 +1.6666963982e+02 +8.5375252135e+01 4.1690055087e+02 0.0000000000e+00 0.0000e+00 1.0000e+00
</event>
<event>
 6      1 +1.4834189e-01 1.00141500e+04 7.81653100e-03 6.93787200e-02
  1000022 -1    0    0    0    0 +0.0000000000e+00 +0.0000000000e+00 +4.4721471353e+01 1.0000100000e+04 1.0000000000e+04 0.0000e+00 1.0000e+00
  1000022 -1    0    0    0    0 -0.0000000000e+00 -0.0000000000e+00 -4.4721471353e+01 1.0000100000e+04 1.0000000000e+04 0.0000e+00 1.0000e+00
      -24  1    1    2    0    0 +1.5130584749e+02 +1.5438677342e+03 +9.3141712300e+03 9.4428056960e+03 7.9829010000e+01 0.0000e+00 -1.0000e+00
       24  1    1    2    0    0 +1.8705163203e+01 -1.6336879131e+03 -9.7050046944e+03 9.8418887857e+03 7.9829010000e+01 0.0000e+00 -1.0000e+00
       22  1    1    2    0    0 +1.2042439645e+00 -2.6226266310e+01 -1.4175375808e+02 1.4416447266e+02 0.0000000000e+00 0.0000e+00 -1.0000e+00
       22  1    1    2    0    0 -1.7121525466e+02 +1.1604644519e+02 +5.3258722251e+02 5.7134104565e+02 0.0000000000e+00 0.0000e+00 -1.0000e+00
</event>
<event>
 6      1 +1.4834189e-01 1.01452500e+04 7.81653100e-03 6.93002900e-02
  1000022 -1    0    0    0    0 +0.0000000000e+00 +0.0000000000e+00 +4.4721471353e+01 1.0000100000e+04 1.0000000000e+04 0.0000e+00 1.0000e+00
  1000022 -1    0    0    0    0 -0.0000000000e+00 -0.0000000000e+00 -4.4721471353e+01 1.0000100000e+04 1.0000000000e+04 0.0000e+00 1.0000e+00
      -24  1    1    2    0    0 -2.7310447469e+03 -6.7917726239e+03 -6.3603107406e+02 7.3483119818e+03 7.9829010000e+01 0.0000e+00 -1.0000e+00
       24  1    1    2    0    0 -1.2146052484e+02 +7.4709190148e+02 -4.6421422764e+02 8.9149676855e+02 7.9829010000e+01 0.0000e+00 1.0000e+00
       22  1    1    2    0    0 +3.5251576624e+03 +8.4407188447e+03 +1.3998378768e+03 9.2537569258e+03 0.0000000000e+00 0.0000e+00 -1.0000e+00
       22  1    1    2    0    0 -6.7265239064e+02 -2.3960381223e+03 -2.9959257507e+02 2.5066343238e+03 0.0000000000e+00 0.0000e+00 -1.0000e+00
</event>
<event>
 6      1 +1.4834189e-01 1.01070000e+04 7.81653100e-03 6.93230500e-02
  1000022 -1    0    0    0    0 +0.0000000000e+00 +0.0000000000e+00 +4.4721471353e+01 1.0000100000e+04 1.0000000000e+04 0.0000e+00 1.0000e+00
  1000022 -1    0    0    0    0 -0.0000000000e+00 -0.0000000000e+00 -4.4721471353e+01 1.0000100000e+04 1.0000000000e+04 0.0000e+00 1.0000e+00
      -24  1    1    2    0    0 +1.4053619951e+03 -6.6608037387e+03 +6.7225217028e+03 9.5676548588e+03 7.9829010000e+01 0.0000e+00 1.0000e+00
       24  1    1    2    0    0 -1.0520830762e+03 +6.9537100015e+03 -6.9575972795e+03 9.8932044434e+03 7.9829010000e+01 0.0000e+00 1.0000e+00
       22  1    1    2    0    0 +8.6717910839e+00 -3.8601641097e+01 +3.8735591859e+01 5.5369059344e+01 0.0000000000e+00 0.0000e+00 1.0000e+00
       22  1    1    2    0    0 -3.6195071006e+02 -2.5430462176e+02 +1.9633998480e+02 4.8397163842e+02 0.0000000000e+00 0.0000e+00 1.0000e+00
</event>
<event>
 6      1 +1.4834189e-01 1.00281700e+04 7.81653100e-03 6.93702800e-02
  1000022 -1    0    0    0    0 +0.0000000000e+00 +0.0000000000e+00 +4.4721471353e+01 1.0000100000e+04 1.0000000000e+04 0.0000e+00 1.0000e+00
  1000022 -1    0    0    0    0 -0.0000000000e+00 -0.0000000000e+00 -4.4721471353e+01 1.0000100000e+04 1.0000000000e+04 0.0000e+00 1.0000e+00
      -24  1    1    2    0    0 -1.3083263149e+03 -7.6445583382e+03 -5.7641091193e+03 9.6634526202e+03 7.9829010000e+01 0.0000e+00 1.0000e+00
       24  1    1    2    0    0 +1.4933854584e+03 +7.3912662709e+03 +5.3582880157e+03 9.2508724099e+03 7.9829010000e+01 0.0000e+00 1.0000e+00
       22  1    1    2    0    0 -1.2808065534e+02 +5.0184594036e+02 +5.7959488327e+02 7.7729288614e+02 0.0000000000e+00 0.0000e+00 1.0000e+00
       22  1    1    2    0    0 -5.6978488119e+01 -2.4855387303e+02 -1.7377377970e+02 3.0858208376e+02 0.0000000000e+00 0.0000e+00 -1.0000e+00
</event>
<event>
 6      1 +1.4834189e-01 1.00900200e+04 7.81653100e-03 6.93331800e-02
  1000022 -1    0    0    0    0 +0.0000000000e+00 +0.0000000000e+00 +4.4721471353e+01 1.0000100000e+04 1.0000000000e+04 0.0000e+00 1.0000e+00
  1000022 -1    0    0    0    0 -0.0000000000e+00 -0.0000000000e+00 -4.4721471353e+01 1.0000100000e+04 1.0000000000e+04 0.0000e+00 1.0000e+00
      -24  1    1    2    0    0 +7.1993865956e+03 +6.0069739072e+03 -3.2078555233e+03 9.9101772236e+03 7.9829010000e+01 0.0000e+00 1.0000e+00
       24  1    1    2    0    0 -3.0160826099e+02 -4.0479481535e+02 -1.4117283801e+02 5.3021583026e+02 7.9829010000e+01 0.0000e+00 1.0000e+00
       22  1    1    2    0    0 -6.8098252078e+01 -1.3560376766e+02 -7.0341307170e+01 1.6725326076e+02 0.0000000000e+00 0.0000e+00 1.0000e+00
       22  1    1    2    0    0 -6.8296800825e+03 -5.4665753242e+03 +3.4193696684e+03 9.3925536854e+03 0.0000000000e+00 0.0000e+00 1.0000e+00
</event>
<event>
 6      1 +1.4834189e-01 1.00002000e+04 7.81653100e-03 6.93871300e-02
  1000022 -1    0    0    0    0 +0.0000000000e+00 +0.0000000000e+00 +4.4721471353e+01 1.0000100000e+04 1.0000000000e+04 0.0000e+00 1.0000e+00
  1000022 -1    0    0    0    0 -0.0000000000e+00 -0.0000000000e+00 -4.4721471353e+01 1.0000100000e+04 1.0000000000e+04 0.0000e+00 1.0000e+00
      -24  1    1    2    0    0 +5.8064936216e+03 +7.6225582476e+03 -2.3326992037e+03 9.8623841266e+03 7.9829010000e+01 0.0000e+00 -1.0000e+00
       24  1    1    2    0    0 -4.4663033385e+03 -5.8814655888e+03 +1.7299338466e+03 7.5854167169e+03 7.9829010000e+01 0.0000e+00 -1.0000e+00
       22  1    1    2    0    0 -1.4317954112e+03 -1.8413697974e+03 +6.2490898358e+02 2.4147861330e+03 0.0000000000e+00 0.0000e+00 -1.0000e+00
       22  1    1    2    0    0 +9.1605128153e+01 +1.0027713862e+02 -2.2143626503e+01 1.3761302347e+02 0.0000000000e+00 0.0000e+00 1.0000e+00
</event>
<event>
 6      1 +1.4834189e-01 1.00296000e+04 7.81653100e-03 6.93694100e-02
  1000022 -1    0    0    0    0 +0.0000000000e+00 +0.0000000000e+00 +4.4721471353e+01 1.0000100000e+04 1.0000000000e+04 0.0000e+00 -1.0000e+00
  1000022 -1    0    0    0    0 -0.0000000000e+00 -0.0000000000e+00 -4.4721471353e+01 1.0000100000e+04 1.0000000000e+04 0.0000e+00 -1.0000e+00
      -24  1    1    2    0    0 -8.2945589245e+03 +5.1231379346e+03 +2.0881366508e+03 9.9706036624e+03 7.9829010000e+01 0.0000e+00 1.0000e+00
       24  1    1    2    0    0 +7.9532451042e+03 -4.8102200077e+03 -1.8164077664e+03 9.4709046059e+03 7.9829010000e+01 0.0000e+00 1.0000e+00
       22  1    1    2    0    0 +1.4614855615e+02 -9.4454227681e+01 -2.5223308279e+01 1.7583292317e+02 0.0000000000e+00 0.0000e+00 1.0000e+00
       22  1    1    2    0    0 +1.9516526413e+02 -2.1846369927e+02 -2.4650557614e+02 3.8285880856e+02 0.0000000000e+00 0.0000e+00 -1.0000e+00
</event>
<event>
 6      1 +1.4834189e-01 1.00034000e+04 7.81653100e-03 6.93852000e-02
  1000022 -1    0    0    0    0 +0.0000000000e+00 +0.0000000000e+00 +4.4721471353e+01 1.0000100000e+04 1.0000000000e+04 0.0000e+00 -1.0000e+00
  1000022 -1    0    0    0    0 -0.0000000000e+00 -0.0000000000e+00 -4.4721471353e+01 1.0000100000e+04 1.0000000000e+04 0.0000e+00 -1.0000e+00
      -24  1    1    2    0    0 +3.8374954618e+03 +4.0857801933e+03 -2.7074144135e+03 6.2254667845e+03 7.9829010000e+01 0.0000e+00 -1.0000e+00
       24  1    1    2    0    0 -5.8709711524e+03 -6.2512363735e+03 +4.7532901940e+03 9.8054270080e+03 7.9829010000e+01 0.0000e+00 -1.0000e+00
       22  1    1    2    0    0 -1.0443932483e+02 -1.5772687530e+02 +2.8953927841e+01 1.9137311645e+02 0.0000000000e+00 0.0000e+00 1.0000e+00
       22  1    1    2    0    0 +2.1379150154e+03 +2.3231830555e+03 -2.0748297083e+03 3.7779330911e+03 0.0000000000e+00 0.0000e+00 -1.0000e+00
</event>
<event>
 6      1 +1.4834189e-01 5.70539900e+03 7.81653100e-03 7.29523200e-02
  1000022 -1    0    0    0    0 +0.0000000000e+00 +0.0000000000e+00 +4.4721471353e+01 1.0000100000e+04 1.0000000000e+04 0.0000e+00 -1.0000e+00
  1000022 -1    0    0    0    0 -0.0000000000e+00 -0.0000000000e+00 -4.4721471353e+01 1.0000100000e+04 1.0000000000e+04 0.0000e+00 -1.0000e+00
      -24  1    1    2    0    0 +1.6184127022e+03 -4.6358041624e+03 +4.8904596118e+03 6.9305777387e+03 7.9829010000e+01 0.0000e+00 1.0000e+00
       24  1    1    2    0    0 +3.3804361988e+03 +5.6866090733e+03 -1.3264612817e+03 6.7476472825e+03 7.9829010000e+01 0.0000e+00 1.0000e+00
       22  1    1    2    0    0 -5.0284558586e+03 -1.0102537346e+03 -3.5946168911e+03 6.2631662539e+03 0.0000000000e+00 0.0000e+00 1.0000e+00
       22  1    1    2    0    0 +2.9606957696e+01 -4.0551176333e+01 +3.0618561021e+01 5.8808724906e+01 0.0000000000e+00 0.0000e+00 -1.0000e+00
</event>
<event>
 6      1 +1.4834189e-01 1.00241100e+04 7.81653100e-03 6.93727200e-02
  1000022 -1    0    0    0    0 +0.0000000000e+00 +0.0000000000e+00 +4.4721471353e+01 1.0000100000e+04 1.0000000000e+04 0.0000e+00 1.0000e+00
  1000022 -1    0    0    0    0 -0.0000000000e+00 -0.0000000000e+00 -4.4721471353e+01 1.0000100000e+04 1.0000000000e+04 0.0000e+00 1.0000e+00
      -24  1    1    2    0    0 -1.5759588403e+02 +1.1567723935e+02 -1.3832854161e+01 2.1161688273e+02 7.9829010000e+01 0.0000e+00 1.0000e+00
       24  1    1    2    0    0 +1.4831927984e+03 -9.3235820831e+03 -1.8520844710e+03 9.6211035384e+03 7.9829010000e+01 0.0000e+00 1.0000e+00
       22  1    1    2    0    0 -9.7870484684e+01 -3.2847120074e+02 -9.2443298242e+01 3.5498975320e+02 0.0000000000e+00 0.0000e+00 1.0000e+00
       22  1    1    2    0    0 -1.2277264297e+03 +9.5363760445e+03 +1.9583606234e+03 9.8124898257e+03 0.0000000000e+00 0.0000e+00 1.0000e+00
</event>
<event>
 6      1 +1.4834189e-01 1.00028000e+04 7.81653100e-03 6.93855700e-02
  1000022 -1    0    0    0    0 +0.0000000000e+00 +0.0000000000e+00 +4.4721471353e+01 1.0000100000e+04 1.0000000000e+04 0.0000e+00 1.0000e+00
  1000022 -1    0    0    0    0 -0.0000000000e+00 -0.0000000000e+00 -4.4721471353e+01 1.0000100000e+04 1.0000000000e+04 0.0000e+00 1.0000e+00
      -24  1    1    2    0    0 +1.8826281490e+03 -2.4900922028e+03 -3.0066500469e+03 4.3348777493e+03 7.9829010000e+01 0.0000e+00 -1.0000e+00
       24  1    1    2    0    0 -2.5121892114e+03 +3.0321004674e+03 +3.9097953118e+03 5.5495585347e+03 7.9829010000e+01 0.0000e+00 -1.0000e+00
       22  1    1    2    0    0 +2.6371624268e+03 -2.9529386964e+03 -4.0559639519e+03 5.6679199173e+03 0.0000000000e+00 0.0000e+00 -1.0000e+00
       22  1    1    2    0    0 -2.0076013644e+03 +2.4109304318e+03 +3.1528186869e+03 4.4478437987e+03 0.0000000000e+00 0.0000e+00 -1.0000e+00
</event>
<event>
 6      1 +1.4834189e-01 1.00004700e+04 7.81653100e-03 6.93869700e-02
  1000022 -1    0    0    0    0 +0.0000000000e+00 +0.0000000000e+00 +4.4721471353e+01 1.0000100000e+04 1.0000000000e+04 0.0000e+00 -1.0000e+00
  1000022 -1    0    0    0    0 -0.0000000000e+00 -0.0000000000e+00 -4.4721471353e+01 1.0000100000e+04 1.0000000000e+04 0.0000e+00 -1.0000e+00
      -24  1    1    2    0    0 -2.6735669223e+03 -8.7186780932e+02 +9.4737600305e+03 9.8826421240e+03 7.9829010000e+01 0.0000e+00 1.0000e+00
       24  1    1    2    0    0 +2.6995135635e+03 +8.8823557974e+02 -9.5130453013e+03 9.9287833847e+03 7.9829010000e+01 0.0000e+00 1.0000e+00
       22  1    1    2    0    0 +1.3556300096e+01 +6.4726519698e+00 -6.9342957137e+01 7.0951491882e+01 0.0000000000e+00 0.0000e+00 -1.0000e+00
       22  1    1    2    0    0 -3.9502941322e+01 -2.2840422394e+01 +1.0862822798e+02 1.1782299937e+02 0.0000000000e+00 0.0000e+00 -1.0000e+00
</event>
<event>
 6      1 +1.4834189e-01 1.00001500e+04 7.81653100e-03 6.93871600e-02
  1000022 -1    0    0    0    0 +0.0000000000e+00 +0.0000000000e+00 +4.4721471353e+01 1.0000100000e+04 1.0000000000e+04 0.0000e+00 1.0000e+00
  1000022 -1    0    0    0    0 -0.0000000000e+00 -0.0000000000e+00 -4.4721471353e+01 1.0000100000e+04 1.0000000000e+04 0.0000e+00 1.0000e+00
      -24  1    1    2    0    0 +8.7929627427e+03 -1.7471465556e+03 -4.1773343034e+03 9.8906627399e+03 7.9829010000e+01 0.0000e+00 -1.0000e+00
       24  1    1    2    0    0 -8.8465867816e+03 +1.7650562296e+03 +4.1991129906e+03 9.9507006666e+03 7.9829010000e+01 0.0000e+00 -1.0000e+00
       22  1    1    2    0    0 +9.2568300860e+01 -4.2142842595e+01 -4.0255681763e+01 1.0938660531e+02 0.0000000000e+00 0.0000e+00 1.0000e+00
       22  1    1    2    0    0 -3.8944261975e+01 +2.4233168568e+01 +1.8476994550e+01 4.9449988142e+01 0.0000000000e+00 0.0000e+00 -1.0000e+00
</event>
<event>
 6      1 +1.4834189e-01 1.01208900e+04 7.81653100e-03 6.93147700e-02
  1000022 -1    0    0    0    0 +0.0000000000e+00 +0.0000000000e+00 +4.4721471353e+01 1.0000100000e+04 1.0000000000e+04 0.0000e+00 -1.0000e+00
  1000022 -1    0    0    0    0 -0.0000000000e+00 -0.0000000000e+00 -4.4721471353e+01 1.0000100000e+04 1.0000000000e+04 0.0000e+00 -1.0000e+00
      -24  1    1    2    0    0 +2.6444519641e+03 +2.8049153565e+03 -7.4493270123e+03 8.3880582946e+03 7.9829010000e+01 0.0000e+00 -1.0000e+00
       24  1    1    2    0    0 -1.2552665328e+03 -2.0538522967e+03 +6.5500370044e+03 6.9787793169e+03 7.9829010000e+01 0.0000e+00 -1.0000e+00
       22  1    1    2    0    0 -8.4028994164e+02 -1.3257018760e+03 +2.4391620922e+03 2.9005317378e+03 0.0000000000e+00 0.0000e+00 -1.0000e+00
       22  1    1    2    0    0 -5.4889548959e+02 +5.7463881617e+02 -1.5398720844e+03 1.7328306506e+03 0.0000000000e+00 0.0000e+00 -1.0000e+00
</event>
<event>
 6      1 +1.4834189e-01 1.00145000e+04 7.81653100e-03 6.93785000e-02
  1000022 -1    0    0    0    0 +0.0000000000e+00 +0.0000000000e+00 +4.4721471353e+01 1.0000100000e+04 1.0000000000e+04 0.0000e+00 -1.0000e+00
  1000022 -1    0    0    0    0 -0.0000000000e+00 -0.0000000000e+00 -4.4721471353e+01 1.0000100000e+04 1.0000000000e+04 0.0000e+00 -1.0000e+00
      -24  1    1    2    0    0 -3.5585018634e+03 +7.4645113507e+03 -5.5969550437e+03 9.9856969536e+03 7.9829010000e+01 0.0000e+00 -1.0000e+00
       24  1    1    2    0    0 +3.5243807449e+03 -7.4298588769e+03 +5.5202793942e+03 9.9047422898e+03 7.9829010000e+01 0.0000e+00 -1.0000e+00
       22  1    1    2    0    0 +2.5768238936e+00 +1.2889885194e+01 +3.9581543556e+01 4.1707166674e+01 0.0000000000e+00 0.0000e+00 -1.0000e+00
       22  1    1    2    0    0 +3.1544294609e+01 -4.7542358979e+01 +3.7094105876e+01 6.8053589989e+01 0.0000000000e+00 0.0000e+00 1.0000e+00
</event>
<event>
 6      1 +1.4834189e-01 1.00036400e+04 7.81653100e-03 6.93850600e-02
  1000022 -1    0    0    0    0 +0.0000000000e+00 +0.0000000000e+00 +4.4721471353e+01 1.0000100000e+04 1.0000000000e+04 0.0000e+00 -1.0000e+00
  1000022 -1    0    0    0    0 -0.0000000000e+00 -0.0000000000e+00 -4.4721471353e+01 1.0000100000e+04 1.0000000000e+04 0.0000e+00 -1.0000e+00
      -24  1    1    2    0    0 +1.1958525964e+03 -4.9887708606e+03 +2.9320642424e+03 5.9094222665e+03 7.9829010000e+01 0.0000e+00 -1.0000e+00
       24  1    1    2    0    0 -1.6866088281e+03 +8.3228018221e+03 -4.9354858479e+03 9.8223761247e+03 7.9829010000e+01 0.0000e+00 -1.0000e+00
       22  1    1    2    0    0 +5.2420878745e+02 -3.4832857147e+03 +2.0867533621e+03 4.0942171190e+03 0.0000000000e+00 0.0000e+00 -1.0000e+00
       22  1    1    2    0    0 -3.3452555706e+01 +1.4925475320e+02 -8.3331756594e+01 1.7418448982e+02 0.0000000000e+00 0.0000e+00 -1.0000e+00
</event>
<event>
 6      1 +1.4834189e-01 1.00006200e+04 7.81653100e-03 6.93868800e-02
  1000022 -1    0    0    0    0 +0.0000000000e+00 +0.0000000000e+00 +4.4721471353e+01 1.0000100000e+04 1.0000000000e+04 0.0000e+00 1.0000e+00
  1000022 -1    0    0    0    0 -0.0000000000e+00 -0.0000000000e+00 -4.4721471353e+01 1.0000100000e+04 1.0000000000e+04 0.0000e+00 1.0000e+00
      -24  1    1    2    0    0 +2.7522466694e+03 -7.3782624195e+03 +1.2399623879e+03 7.9722956201e+03 7.9829010000e+01 0.0000e+00 1.0000e+00
       24  1    1    2    0    0 -3.2969777629e+03 +8.8471442361e+03 -1.5601762093e+03 9.5698770096e+03 7.9829010000e+01 0.0000e+00 1.0000e+00
       22  1    1    2    0    0 +6.9499677520e+02 -1.8660736573e+03 +3.8581156407e+02 2.0283249185e+03 0.0000000000e+00 0.0000e+00 1.0000e+00
       22  1    1    2    0    0 -1.5026568175e+02 +3.9719184058e+02 -6.5597742637e+01 4.2970245191e+02 0.0000000000e+00 0.0000e+00 -1.0000e+00
</event>
<event>
 6      1 +1.4834189e-01 1.00346600e+04 7.81653100e-03 6.93663700e-02
  1000022 -1    0    0    0    0 +0.0000000000e+00 +0.0000000000e+00 +4.4721471353e+01 1.0000100000e+04 1.0000000000e+04 0.0000e+00 1.0000e+00
  1000022 -1    0    0    0    0 -0.0000000000e+00 -0.0000000000e+00 -4.4721471353e+01 1.0000100000e+04 1.0000000000e+04 0.0000e+00 1.0000e+00
      -24  1    1    2    0    0 -6.8341524056e+03 +6.7548754985e+03 +2.5727016974e+03 9.9478213091e+03 7.9829010000e+01 0.0000e+00 1.0000e+00
       24  1    1    2    0    0 +3.6323175267e+02 -6.4096766757e+01 -5.6618077936e+01 3.8160710062e+02 7.9829010000e+01 0.0000e+00 -1.0000e+00
       22  1    1    2    0    0 -1.1948012858e-01 +1.7223379807e+01 -4.1393455219e+00 1.7714210929e+01 0.0000000000e+00 0.0000e+00 -1.0000e+00
       22  1    1    2    0    0 +6.4710401331e+03 -6.7080021116e+03 -2.5119442740e+03 9.6530573793e+03 0.0000000000e+00 0.0000e+00 1.0000e+00
</event>
<event>
 6      1 +1.4834189e-01 1.00012500e+04 7.81653100e-03 6.93865000e-02
  1000022 -1    0    0    0    0 +0.0000000000e+00 +0.0000000000e+00 +4.4721471353e+01 1.0000100000e+04 1.0000000000e+04 0.0000e+00 -1.0000e+00
  1000022 -1    0    0    0    0 -0.0000000000e+00 -0.0000000000e+00 -4.4721471353e+01 1.0000100000e+04 1.0000000000e+04 0.0000e+00 -1.0000e+00
      -24  1    1    2    0    0 +4.4879292487e+03 -4.4589928518e+03 -6.8423706283e+03 9.3192561226e+03 7.9829010000e+01 0.0000e+00 -1.0000e+00
       24  1    1    2    0    0 -3.8026925023e+03 +3.6868870074e+03 +5.8206067958e+03 7.8701615113e+03 7.9829010000e+01 0.0000e+00 -1.0000e+00
       22  1    1    2    0    0 +3.3491792302e+02 -2.6918577795e+02 -5.2960521129e+02 6.8199169939e+02 0.0000000000e+00 0.0000e+00 -1.0000e+00
       22  1    1    2    0    0 -1.0201546694e+03 +1.0412916223e+03 +1.5513690438e+03 2.1287906666e+03 0.0000000000e+00 0.0000e+00 -1.0000e+00
</event>
<event>
 6      1 +1.4834189e-01 1.00001900e+04 7.81653100e-03 6.93871400e-02
  1000022 -1    0    0    0    0 +0.0000000000e+00 +0.0000000000e+00 +4.4721471353e+01 1.0000100000e+04 1.0000000000e+04 0.0000e+00 -1.0000e+00
  1000022 -1    0    0    0    0 -0.0000000000e+00 -0.0000000000e+00 -4.4721471353e+01 1.0000100000e+04 1.0000000000e+04 0.0000e+00 -1.0000e+00
      -24  1    1    2    0    0 -3.8615035462e+01 -8.3650411762e+03 -5.4486105439e+03 9.9834430198e+03 7.9829010000e+01 0.0000e+00 -1.0000e+00
       24  1    1    2    0    0 +3.3487004701e+01 +8.3260914261e+03 +5.4291800004e+03 9.9401855095e+03 7.9829010000e+01 0.0000e+00 -1.0000e+00
       22  1    1    2    0    0 +3.9017068316e+00 +5.2300460708e+01 +2.9159059316e+01 6.0006768340e+01 0.0000000000e+00 0.0000e+00 1.0000e+00
       22  1    1    2    0    0 +1.2263239296e+00 -1.3350710589e+01 -9.7285158243e+00 1.6564702344e+01 0.0000000000e+00 0.0000e+00 1.0000e+00
</event>
<event>
 6      1 +1.4834189e-01 1.00941300e+04 7.81653100e-03 6.93307300e-02
  1000022 -1    0    0    0    0 +0.0000000000e+00 +0.0000000000e+00 +4.4721471353e+01 1.0000100000e+04 1.0000000000e+04 0.0000e+00 1.0000e+00
  1000022 -1    0    0    0    0 -0.0000000000e+00 -0.0000000000e+00 -4.4721471353e+01 1.0000100000e+04 1.0000000000e+04 0.0000e+00 1.0000e+00
      -24  1    1    2    0    0 -7.9434306885e+03 +3.3510075259e+03 +2.3711666242e+03 8.9418200817e+03 7.9829010000e+01 0.0000e+00 1.0000e+00
       24  1    1    2    0    0 +6.9971432198e+03 -1.9277400445e+03 -1.2957810677e+03 7.3730330369e+03 7.9829010000e+01 0.0000e+00 1.0000e+00
       22  1    1    2    0    0 +1.5573841164e+03 -1.3028584916e+03 -1.8114849762e+03 2.7210959840e+03 0.0000000000e+00 0.0000e+00 1.0000e+00
       22  1    1    2    0    0 -6.1109664763e+02 -1.2040898983e+02 +7.3609941972e+02 9.6425089748e+02 0.0000000000e+00 0.0000e+00 1.0000e+00
</event>
<event>
 6      1 +1.4834189e-01 1.01065800e+04 7.81653100e-03 6.93233000e-02
  1000022 -1    0    0    0    0 +0.0000000000e+00 +0.0000000000e+00 +4.4721471353e+01 1.0000100000e+04 1.0000000000e+04 0.0000e+00 -1.0000e+00
  1000022 -1    0    0    0    0 -0.0000000000e+00 -0.0000000000e+00 -4.4721471353e+01 1.0000100000e+04 1.0000000000e+04 0.0000e+00 -1.0000e+00
      -24  1    1    2    0    0 -2.8765871424e+03 -4.3747700717e+02 -9.3391428420e+03 9.7822339685e+03 7.9829010000e+01 0.0000e+00 1.0000e+00
       24  1    1    2    0    0 +3.0138372899e+03 +6.6703125640e+02 +9.2699379650e+03 9.7706841344e+03 7.9829010000e+01 0.0000e+00 1.0000e+00
       22  1    1    2    0    0 -2.4499002918e+02 -2.1218148728e+02 +1.2603803043e+01 3.2434542357e+02 0.0000000000e+00 0.0000e+00 -1.0000e+00
       22  1    1    2    0    0 +1.0773988167e+02 -1.7372761959e+01 +5.6601073971e+01 1.2293647358e+02 0.0000000000e+00 0.0000e+00 1.0000e+00
</event>
<event>
 6      1 +1.4834189e-01 1.02141000e+04 7.81653100e-03 6.92595800e-02
  1000022 -1    0    0    0    0 +0.0000000000e+00 +0.0000000000e+00 +4.4721471353e+01 1.0000100000e+04 1.0000000000e+04 0.0000e+00 1.0000e+00
  1000022 -1    0    0    0    0 -0.0000000000e+00 -0.0000000000e+00 -4.4721471353e+01 1.0000100000e+04 1.0000000000e+04 0.0000e+00 1.0000e+00
      -24  1    1    2    0    0 +3.6070929868e+03 -2.6689220022e+03 +6.9605927041e+03 8.2819374504e+03 7.9829010000e+01 0.0000e+00 -1.0000e+00
       24  1    1    2    0    0 -4.0059213329e+03 +2.3910691433e+03 -7.4315583114e+03 8.7749101978e+03 7.9829010000e+01 0.0000e+00 -1.0000e+00
       22  1    1    2    0    0 +1.1865875848e+03 -8.9906861449e+02 +2.1492928156e+02 1.5041639093e+03 0.0000000000e+00 0.0000e+00 1.0000e+00
       22  1    1    2    0    0 -7.8775923869e+02 +1.1769214734e+03 +2.5603632569e+02 1.4391884424e+03 0.0000000000e+00 0.0000e+00 -1.0000e+00
</event>
<event>
 6      1 +1.4834189e-01 1.00079500e+04 7.81653100e-03 6.93824500e-02
  1000022 -1    0    0    0    0 +0.0000000000e+00 +0.0000000000e+00 +4.4721471353e+01 1.0000100000e+04 1.0000000000e+04 0.0000e+00 1.0000e+00
  1000022 -1    0    0    0    0 -0.0000000000e+00 -0.0000000000e+00 -4.4721471353e+01 1.0000100000e+04 1.0000000000e+04 0.0000e+00 1.0000e+00
      -24  1    1    2    0    0 -7.1559457057e+03 +4.7432584304e+03 -1.4063370566e+03 8.7000124177e+03 7.9829010000e+01 0.0000e+00 1.0000e+00
       24  1    1    2    0    0 +6.7846814825e+03 -4.7714275479e+03 +1.2824084315e+03 8.3934121619e+03 7.9829010000e+01 0.0000e+00 1.0000e+00
       22  1    1    2    0    0 -9.5275345894e+02 +8.8551120209e+02 -1.3725285131e+02 1.3079402080e+03 0.0000000000e+00 0.0000e+00 1.0000e+00
       22  1    1    2    0    0 +1.3240176822e+03 -8.5734208461e+02 +2.6118147636e+02 1.5988352124e+03 0.0000000000e+00 0.0000e+00 -1.0000e+00
</event>
<event>
 6      1 +1.4834189e-01 1.00553800e+04 7.81653100e-03 6.93539300e-02
  1000022 -1    0    0    0    0 +0.0000000000e+00 +0.0000000000e+00 +4.4721471353e+01 1.0000100000e+04 1.0000000000e+04 0.0000e+00 -1.0000e+00
  1000022 -1    0    0    0    0 -0.0000000000e+00 -0.0000000000e+00 -4.4721471353e+01 1.0000100000e+04 1.0000000000e+04 0.0000e+00 -1.0000e+00
      -24  1    1    2    0    0 -5.2490546492e+02 +7.4338024443e+01 +2.2729830393e+02 5.8231355710e+02 7.9829010000e+01 0.0000e+00 -1.0000e+00
       24  1    1    2    0    0 +2.1912914097e+03 -2.1402328312e+03 -3.5146764731e+02 3.0841946748e+03 7.9829010000e+01 0.0000e+00 -1.0000e+00
       22  1    1    2    0    0 -5.1593016194e+03 +7.7769051273e+03 +1.6248847695e+03 9.4730616526e+03 0.0000000000e+00 0.0000e+00 -1.0000e+00
       22  1    1    2    0    0 +3.4929156746e+03 -5.7110103206e+03 -1.5007154261e+03 6.8606301155e+03 0.0000000000e+00 0.0000e+00 -1.0000e+00
</event>
<event>
 6      1 +1.4834189e-01 1.00122200e+04 7.81653100e-03 6.93798800e-02
  1000022 -1    0    0    0    0 +0.0000000000e+00 +0.0000000000e+00 +4.4721471353e+01 1.0000100000e+04 1.0000000000e+04 0.0000e+00 1.0000e+00
  1000022 -1    0    0    0    0 -0.0000000000e+00 -0.0000000000e+00 -4.4721471353e+01 1.0000100000e+04 1.0000000000e+04 0.0000e+00 1.0000e+00
      -24  1    1    2    0    0 +2.8686225856e+03 +1.0748965894e+03 +9.4577689300e+03 9.9418390663e+03 7.9829010000e+01 0.0000e+00 1.0000e+00
       24  1    1    2    0    0 -1.9743283228e+03 -1.0873425770e+03 -6.8654041701e+03 7.2263706863e+03 7.9829010000e+01 0.0000e+00 1.0000e+00
       22  1    1    2    0    0 +6.1223061578e+00 -1.3027081957e+01 +4.3837453397e+01 4.6140110721e+01 0.0000000000e+00 0.0000e+00 1.0000e+00
       22  1    1    2    0    0 -9.0041656896e+02 +2.5473069545e+01 -2.6362022133e+03 2.7858501367e+03 0.0000000000e+00 0.0000e+00 -1.0000e+00
</event>
<event>
 6      1 +1.4834189e-01 9.51674600e+03 7.81653100e-03 6.96876600e-02
  1000022 -1    0    0    0    0 +0.0000000000e+00 +0.0000000000e+00 +4.4721471353e+01 1.0000100000e+04 1.0000000000e+04 0.0000e+00 -1.0000e+00
  1000022 -1    0    0    0    0 -0.0000000000e+00 -0.0000000000e+00 -4.4721471353e+01 1.0000100000e+04 1.0000000000e+04 0.0000e+00 -1.0000e+00
      -24  1    1    2    0    0 +1.4724480897e+02 -3.0614342603e+03 -9.1997187720e+03 9.6971778842e+03 7.9829010000e+01 0.0000e+00 -1.0000e+00
       24  1    1    2    0    0 +7.7954787296e+02 +3.3951500764e+02 +2.4014360040e+02 8.8713411968e+02 7.9829010000e+01 0.0000e+00 -1.0000e+00
       22  1    1    2    0    0 -9.4087105915e+02 +2.6897981496e+03 +8.9138812591e+03 9.3582867843e+03 0.0000000000e+00 0.0000e+00 -1.0000e+00
       22  1    1    2    0    0 +1.4078377213e+01 +3.2121103060e+01 +4.5693912420e+01 5.7601211784e+01 0.0000000000e+00 0.0000e+00 1.0000e+00
</event>
<event>
 6      1 +1.4834189e-01 1.04947900e+04 7.81653100e-03 6.90968800e-02
  1000022 -1    0    0    0    0 +0.0000000000e+00 +0.0000000000e+00 +4.4721471353e+01 1.0000100000e+04 1.0000000000e+04 0.0000e+00 -1.0000e+00
  1000022 -1    0    0    0    0 -0.0000000000e+00 -0.0000000000e+00 -4.4721471353e+01 1.0000100000e+04 1.0000000000e+04 0.0000e+00 -1.0000e+00
      -24  1    1    2    0    0 -5.9975942434e+03 +5.3024173733e+03 -5.1244147839e+03 9.5054072116e+03 7.9829010000e+01 0.0000e+00 1.0000e+00
       24  1    1    2    0    0 +3.0700208980e+03 -4.2764097172e+03 +4.7457333894e+03 7.0880932879e+03 7.9829010000e+01 0.0000e+00 1.0000e+00
       22  1    1    2    0    0 +2.7022428000e+02 -3.9800488316e+02 +4.7282208813e+02 6.7452929925e+02 0.0000000000e+00 0.0000e+00 1.0000e+00
       22  1    1    2    0    0 +2.6573490655e+03 -6.2800277301e+02 -9.4140693635e+01 2.7321702013e+03 0.0000000000e+00 0.0000e+00 1.0000e+00
</event>
<event>
 6      1 +1.4834189e-01 1.00564200e+04 7.81653100e-03 6.93533000e-02
  1000022 -1    0    0    0    0 +0.0000000000e+00 +0.0000000000e+00 +4.4721471353e+01 1.0000100000e+04 1.0000000000e+04 0.0000e+00 1.0000e+00
  1000022 -1    0    0    0    0 -0.0000000000e+00 -0.0000000000e+00 -4.4721471353e+01 1.0000100000e+04 1.0000000000e+04 0.0000e+00 1.0000e+00
      -24  1    1    2    0    0 +1.0379698585e+02 +3.6097296913e+03 -1.8990773508e+03 4.0809055016e+03 7.9829010000e+01 0.0000e+00 1.0000e+00
       24  1    1    2    0    0 +1.8357481737e+02 -8.3795578039e+03 +5.3499287087e+03 9.9437819044e+03 7.9829010000e+01 0.0000e+00 1.0000e+00
       22  1    1    2    0    0 -4.1901603568e+02 +2.5960935477e+03 -2.3884824425e+03 3.5524814602e+03 0.0000000000e+00 0.0000e+00 -1.0000e+00
       22  1    1    2    0    0 +1.3164423246e+02 +2.1737345650e+03 -1.0623689154e+03 2.4230311338e+03 0.0000000000e+00 0.0000e+00 1.0000e+00
</event>
<event>
 6      1 +1.4834189e-01 1.00337000e+04 7.81653100e-03 6.93669500e-02
  1000022 -1    0    0    0    0 +0.0000000000e+00 +0.0000000000e+00 +4.4721471353e+01 1.0000100000e+04 1.0000000000e+04 0.0000e+00 1.0000e+00
  1000022 -1    0    0    0    0 -0.0000000000e+00 -0.0000000000e+00 -4.4721471353e+01 1.0000100000e+04 1.0000000000e+04 0.0000e+00 1.0000e+00
      -24  1    1    2    0    0 -4.5878212934e+02 +7.0517258789e+03 +6.7272592990e+03 9.7570338351e+03 7.9829010000e+01 0.0000e+00 1.0000e+00
       24  1    1    2    0    0 +9.9243887406e+02 -7.0155455932e+03 -6.2891205188e+03 9.4742928211e+03 7.9829010000e+01 0.0000e+00 1.0000e+00
       22  1    1    2    0    0 -2.5171528620e+02 +9.9070558581e+01 -5.8023775683e+01 2.7666282625e+02 0.0000000000e+00 0.0000e+00 1.0000e+00
       22  1    1    2    0    0 -2.8194145852e+02 -1.3525084425e+02 -3.8011500452e+02 4.9221051753e+02 0.0000000000e+00 0.0000e+00 -1.0000e+00
</event>
<event>
 6      1 +1.4834189e-01 1.02901600e+04 7.81653100e-03 6.92149700e-02
  1000022 -1    0    0    0    0 +0.0000000000e+00 +0.0000000000e+00 +4.4721471353e+01 1.0000100000e+04 1.0000000000e+04 0.0000e+00 1.0000e+00
  1000022 -1    0    0    0    0 -0.0000000000e+00 -0.0000000000e+00 -4.4721471353e+01 1.0000100000e+04 1.0000000000e+04 0.0000e+00 1.0000e+00
      -24  1    1    2    0    0 +1.2693697066e+03 +7.0574877116e+03 +3.4319227482e+03 7.9500879663e+03 7.9829010000e+01 0.0000e+00 -1.0000e+00
       24  1    1    2    0    0 -3.1576967093e+03 -8.0243772682e+03 -4.0368194953e+03 9.5217626183e+03 7.9829010000e+01 0.0000e+00 -1.0000e+00
       22  1    1    2    0    0 -4.8718557606e+01 -1.7783611602e+02 -3.8064107012e+01 1.8827654728e+02 0.0000000000e+00 0.0000e+00 -1.0000e+00
       22  1    1    2    0    0 +1.9370455603e+03 +1.1447256726e+03 +6.4296085408e+02 2.3400728681e+03 0.0000000000e+00 0.0000e+00 -1.0000e+00
</event>
<event>
 6      1 +1.4834189e-01 1.01811500e+04 7.81653100e-03 6.92790200e-02
  1000022 -1    0    0    0    0 +0.0000000000e+00 +0.0000000000e+00 +4.4721471353e+01 1.0000100000e+04 1.0000000000e+04 0.0000e+00 1.0000e+00
  1000022 -1    0    0    0    0 -0.0000000000e+00 -0.0000000000e+00 -4.4721471353e+01 1.0000100000e+04 1.0000000000e+04 0.0000e+00 1.0000e+00
      -24  1    1    2    0    0 -4.1083341380e+03 -6.4929223610e+03 +4.8136569427e+03 9.0672000093e+03 7.9829010000e+01 0.0000e+00 1.0000e+00
       24  1    1    2    0    0 +2.1096795145e+03 +6.7264417487e+03 -4.2617945638e+03 8.2380235389e+03 7.9829010000e+01 0.0000e+00 1.0000e+00
       22  1    1    2    0    0 +4.2784492078e+02 -1.8220190254e+02 +5.9079019541e+02 7.5185228903e+02 0.0000000000e+00 0.0000e+00 -1.0000e+00
       22  1    1    2    0    0 +1.5708097028e+03 -5.1317485171e+01 -1.1426525742e+03 1.9431241628e+03 0.0000000000e+00 0.0000e+00 1.0000e+00
</event>
<event>
 6      1 +1.4834189e-01 1.00041000e+04 7.81653100e-03 6.93847800e-02
  1000022 -1    0    0    0    0 +0.0000000000e+00 +0.0000000000e+00 +4.4721471353e+01 1.0000100000e+04 1.0000000000e+04 0.0000e+00 -1.0000e+00
  1000022 -1    0    0    0    0 -0.0000000000e+00 -0.0000000000e+00 -4.4721471353e+01 1.0000100000e+04 1.0000000000e+04 0.0000e+00 -1.0000e+00
      -24  1    1    2    0    0 -1.2945486378e+03 +1.5525038794e+03 -2.6569761878e+03 3.3394639696e+03 7.9829010000e+01 0.0000e+00 0.0000e+00
       24  1    1    2    0    0 +3.8429659870e+03 -4.5899334052e+03 +7.9972595861e+03 9.9899154050e+03 7.9829010000e+01 0.0000e+00 -1.0000e+00
       22  1    1    2    0    0 -2.5399308233e+03 +3.0476773041e+03 -5.3452033162e+03 6.6566345873e+03 0.0000000000e+00 0.0000e+00 -1.0000e+00
       22  1    1    2    0    0 -8.4865258904e+00 -1.0247778335e+01 +4.9199179566e+00 1.4186038037e+01 0.0000000000e+00 0.0000e+00 1.0000e+00
</event>
<event>
 6      1 +1.4834189e-01 9.48249900e+03 7.81653100e-03 6.97096200e-02
  1000022 -1    0    0    0    0 +0.0000000000e+00 +0.0000000000e+00 +4.4721471353e+01 1.0000100000e+04 1.0000000000e+04 0.0000e+00 -1.0000e+00
  1000022 -1    0    0    0    0 -0.0000000000e+00 -0.0000000000e+00 -4.4721471353e+01 1.0000100000e+04 1.0000000000e+04 0.0000e+00 -1.0000e+00
      -24  1    1    2    0    0 -6.2808415463e+00 +2.6623965615e+02 +1.4142890747e+02 3.1192596907e+02 7.9829010000e+01 0.0000e+00 -1.0000e+00
       24  1    1    2    0    0 +1.2336437373e+02 +6.5503941413e+02 +1.8990410329e+02 6.9766155265e+02 7.9829010000e+01 0.0000e+00 -1.0000e+00
       22  1    1    2    0    0 -1.5411288846e+03 +2.4398365046e+03 -9.0711434851e+03 9.5191136423e+03 0.0000000000e+00 0.0000e+00 -1.0000e+00
       22  1    1    2    0    0 +1.4240453524e+03 -3.3611155749e+03 +8.7398104743e+03 9.4714988360e+03 0.0000000000e+00 0.0000e+00 -1.0000e+00
</event>
<event>
 6      1 +1.4834189e-01 1.00213000e+04 7.81653100e-03 6.93744100e-02
  1000022 -1    0    0    0    0 +0.0000000000e+00 +0.0000000000e+00 +4.4721471353e+01 1.0000100000e+04 1.0000000000e+04 0.0000e+00 -1.0000e+00
  1000022 -1    0    0    0    0 -0.0000000000e+00 -0.0000000000e+00 -4.4721471353e+01 1.0000100000e+04 1.0000000000e+04 0.0000e+00 -1.0000e+00
      -24  1    1    2    0    0 +1.6638642420e+03 -9.0867485043e+03 +3.7677160020e+03 9.9769483881e+03 7.9829010000e+01 0.0000e+00 1.0000e+00
       24  1    1    2    0    0 -1.6740721510e+03 +8.9712445495e+03 -3.7555313161e+03 9.8689479921e+03 7.9829010000e+01 0.0000e+00 1.0000e+00
       22  1    1    2    0    0 +3.0547120668e+01 +1.5304144151e+01 +2.8272210783e+01 4.4347055279e+01 0.0000000000e+00 0.0000e+00 -1.0000e+00
       22  1    1    2    0    0 -2.0339211633e+01 +1.0019981071e+02 -4.0456896722e+01 1.0995656455e+02 0.0000000000e+00 0.0000e+00 -1.0000e+00
</event>
<event>
 6      1 +1.4834189e-01 6.83717100e+03 7.81653100e-03 7.17627700e-02
  1000022 -1    0    0    0    0 +0.0000000000e+00 +0.0000000000e+00 +4.4721471353e+01 1.0000100000e+04 1.0000000000e+04 0.0000e+00 -1.0000e+00
  1000022 -1    0    0    0    0 -0.0000000000e+00 -0.0000000000e+00 -4.4721471353e+01 1.0000100000e+04 1.0000000000e+04 0.0000e+00 -1.0000e+00
      -24  1    1    2    0    0 +4.1653508467e+03 +3.2230984647e+03 -7.8812400411e+02 5.3259762961e+03 7.9829010000e+01 0.0000e+00 -1.0000e+00
       24  1    1    2    0    0 -4.6008826964e+03 +1.3580332541e+03 -5.2099952682e+03 7.0825701034e+03 7.9829010000e+01 0.0000e+00 -1.0000e+00
       22  1    1    2    0    0 -1.1205697614e+01 +2.4323682191e+00 -1.4191571526e+01 1.8245130215e+01 0.0000000000e+00 0.0000e+00 1.0000e+00
       22  1    1    2    0    0 +4.4673754725e+02 -4.5835640870e+03 +6.0123108438e+03 7.5734084703e+03 0.0000000000e+00 0.0000e+00 -1.0000e+00
</event>
<event>
 6      1 +1.4834189e-01 1.01771900e+04 7.81653100e-03 6.92813700e-02
  1000022 -1    0    0    0    0 +0.0000000000e+00 +0.0000000000e+00 +4.4721471353e+01 1.0000100000e+04 1.0000000000e+04 0.0000e+00 1.0000e+00
  1000022 -1    0    0    0    0 -0.0000000000e+00 -0.0000000000e+00 -4.4721471353e+01 1.0000100000e+04 1.0000000000e+04 0.0000e+00 1.0000e+00
      -24  1    1    2    0    0 +1.7753321833e+03 +8.5962753456e+03 +3.4430467238e+02 8.7847978097e+03 7.9829010000e+01 0.0000e+00 -1.0000e+00
       24  1    1    2    0    0 -2.5336693383e+03 -8.5256324013e+03 -1.6467997355e+02 8.8960317177e+03 7.9829010000e+01 0.0000e+00 -1.0000e+00
       22  1    1    2    0    0 +1.1419810270e+03 +7.7313346835e+02 -1.9206520395e+02 1.3923882607e+03 0.0000000000e+00 0.0000e+00 1.0000e+00
       22  1    1    2    0    0 -3.8364387203e+02 -8.4377641268e+02 +1.2440505121e+01 9.2698221197e+02 0.0000000000e+00 0.0000e+00 1.0000e+00
</event>
<event>
 6      1 +1.4834189e-01 1.00007100e+04 7.81653100e-03 6.93868300e-02
  1000022 -1    0    0    0    0 +0.0000000000e+00 +0.0000000000e+00 +4.4721471353e+01 1.0000100000e+04 1.0000000000e+04 0.0000e+00 1.0000e+00
  1000022 -1    0    0    0    0 -0.0000000000e+00 -0.0000000000e+00 -4.4721471353e+01 1.0000100000e+04 1.0000000000e+04 0.0000e+00 1.0000e+00
      -24  1    1    2    0    0 -2.6101533186e+03 -5.5014527989e+03 -4.7453312368e+03 7.7203254117e+03 7.9829010000e+01 0.0000e+00 0.0000e+00
       24  1    1    2    0    0 +3.3658976606e+03 +7.0696659354e+03 +6.1188929364e+03 9.9376389016e+03 7.9829010000e+01 0.0000e+00 -1.0000e+00
       22  1    1    2    0    0 -7.7410473748e+02 -1.6210568960e+03 -1.4026871812e+03 2.2791654027e+03 0.0000000000e+00 0.0000e+00 -1.0000e+00
       22  1    1    2    0    0 +1.8360395430e+01 +5.2843759545e+01 +2.9125481551e+01 6.3070283960e+01 0.0000000000e+00 0.0000e+00 -1.0000e+00
</event>
<event>
 6      1 +1.4834189e-01 1.00017600e+04 7.81653100e-03 6.93861900e-02
  1000022 -1    0    0    0    0 +0.0000000000e+00 +0.0000000000e+00 +4.4721471353e+01 1.0000100000e+04 1.0000000000e+04 0.0000e+00 1.0000e+00
  1000022 -1    0    0    0    0 -0.0000000000e+00 -0.0000000000e+00 -4.4721471353e+01 1.0000100000e+04 1.0000000000e+04 0.0000e+00 1.0000e+00
      -24  1    1    2    0    0 -3.5150048636e+03 -3.6467767596e+03 +8.4997617761e+03 9.8947745222e+03 7.9829010000e+01 0.0000e+00 -1.0000e+00
       24  1    1    2    0    0 +2.5336505507e+02 +2.7357719855e+02 -6.2163704835e+02 7.2927609683e+02 7.9829010000e+01 0.0000e+00 0.0000e+00
       22  1    1    2    0    0 -4.4216625248e+01 -2.7633697031e+01 +8.9597953886e+01 1.0366544507e+02 0.0000000000e+00 0.0000e+00 1.0000e+00
       22  1    1    2    0    0 +3.3058564338e+03 +3.4008332581e+03 -7.9677226816e+03 9.2724839359e+03 0.0000000000e+00 0.0000e+00 -1.0000e+00
</event>
<event>
 6      1 +1.4834189e-01 1.00334500e+04 7.81653100e-03 6.93670900e-02
  1000022 -1    0    0    0    0 +0.0000000000e+00 +0.0000000000e+00 +4.4721471353e+01 1.0000100000e+04 1.0000000000e+04 0.0000e+00 1.0000e+00
  1000022 -1    0    0    0    0 -0.0000000000e+00 -0.0000000000e+00 -4.4721471353e+01 1.0000100000e+04 1.0000000000e+04 0.0000e+00 1.0000e+00
      -24  1    1    2    0    0 -8.3262400354e+02 +1.2581656469e+02 +2.4578665909e+02 8.8083840280e+02 7.9829010000e+01 0.0000e+00 -1.0000e+00
       24  1    1    2    0    0 +8.6521451005e+03 -6.1457473914e+02 -4.9083940013e+03 9.9667457725e+03 7.9829010000e+01 0.0000e+00 -1.0000e+00
       22  1    1    2    0    0 -7.7889138154e+03 +4.4154200769e+02 +4.6750930894e+03 9.0949784586e+03 0.0000000000e+00 0.0000e+00 -1.0000e+00
       22  1    1    2    0    0 -3.0607281574e+01 +4.7216166761e+01 -1.2485747119e+01 5.7637366092e+01 0.0000000000e+00 0.0000e+00 -1.0000e+00
</event>
<event>
 6      1 +1.4834189e-01 1.01093800e+04 7.81653100e-03 6.93216300e-02
  1000022 -1    0    0    0    0 +0.0000000000e+00 +0.0000000000e+00 +4.4721471353e+01 1.0000100000e+04 1.0000000000e+04 0.0000e+00 -1.0000e+00
  1000022 -1    0    0    0    0 -0.0000000000e+00 -0.0000000000e+00 -4.4721471353e+01 1.0000100000e+04 1.0000000000e+04 0.0000e+00 -1.0000e+00
      -24  1    1    2    0    0 -7.0898378720e+03 +4.9117496059e+03 +4.3547987772e+03 9.6623874019e+03 7.9829010000e+01 0.0000e+00 -1.0000e+00
       24  1    1    2    0    0 +7.0420820357e+03 -5.3000972260e+03 -4.2517915958e+03 9.7860132050e+03 7.9829010000e+01 0.0000e+00 -1.0000e+00
       22  1    1    2    0    0 -2.8408788354e+01 +4.4259969108e+02 -5.5674169903e+01 4.4699122922e+02 0.0000000000e+00 0.0000e+00 -1.0000e+00
       22  1    1    2    0    0 +7.6164624701e+01 -5.4252070971e+01 -4.7333011471e+01 1.0480816397e+02 0.0000000000e+00 0.0000e+00 1.0000e+00
</event>
<event>
 6      1 +1.4834189e-01 6.64890100e+03 7.81653100e-03 7.19437500e-02
  1000022 -1    0    0    0    0 +0.0000000000e+00 +0.0000000000e+00 +4.4721471353e+01 1.0000100000e+04 1.0000000000e+04 0.0000e+00 -1.0000e+00
  1000022 -1    0    0    0    0 -0.0000000000e+00 -0.0000000000e+00 -4.4721471353e+01 1.0000100000e+04 1.0000000000e+04 0.0000e+00 -1.0000e+00
      -24  1    1    2    0    0 +2.8736425244e+03 -2.0228468040e+03 -4.2898989792e+03 5.5461100307e+03 7.9829010000e+01 0.0000e+00 -1.0000e+00
       24  1    1    2    0    0 -2.0801838730e+03 +5.3898886394e+03 -2.8578821844e+03 6.4460784778e+03 7.9829010000e+01 0.0000e+00 -1.0000e+00
       22  1    1    2    0    0 -8.0700722965e+02 -3.3714295844e+03 +7.1798310419e+03 7.9729399786e+03 0.0000000000e+00 0.0000e+00 -1.0000e+00
       22  1    1    2    0    0 +1.3548578279e+01 +4.3877489739e+00 -3.2049878402e+01 3.5071512942e+01 0.0000000000e+00 0.0000e+00 -1.0000e+00
</event>
<event>
 6      1 +1.4834189e-01 1.00377000e+04 7.81653100e-03 6.93645400e-02
  1000022 -1    0    0    0    0 +0.0000000000e+00 +0.0000000000e+00 +4.4721471353e+01 1.0000100000e+04 1.0000000000e+04 0.0000e+00 -1.0000e+00
  1000022 -1    0    0    0    0 -0.0000000000e+00 -0.0000000000e+00 -4.4721471353e+01 1.0000100000e+04 1.0000000000e+04 0.0000e+00 -1.0000e+00
      -24  1    1    2    0    0 -3.9975794893e+02 -1.0775279317e+03 +8.4916808247e+03 8.5694742406e+03 7.9829010000e+01 0.0000e+00 1.0000e+00
       24  1    1    2    0    0 -1.6459548563e+01 +4.2067633221e+01 -2.2966276514e+02 2.4730195922e+02 7.9829010000e+01 0.0000e+00 0.0000e+00
       22  1    1    2    0    0 +8.0941920983e+02 +1.6380571388e+03 -9.5418414460e+03 9.7152009155e+03 0.0000000000e+00 0.0000e+00 1.0000e+00
       22  1    1    2    0    0 -3.9320171234e+02 -6.0259684028e+02 +1.2798233865e+03 1.4682228847e+03 0.0000000000e+00 0.0000e+00 -1.0000e+00
</event>
<event>
 6      1 +1.4834189e-01 1.00007300e+04 7.81653100e-03 6.93868200e-02
  1000022 -1    0    0    0    0 +0.0000000000e+00 +0.0000000000e+00 +4.4721471353e+01 1.0000100000e+04 1.0000000000e+04 0.0000e+00 1.0000e+00
  1000022 -1    0    0    0    0 -0.0000000000e+00 -0.0000000000e+00 -4.4721471353e+01 1.0000100000e+04 1.0000000000e+04 0.0000e+00 1.0000e+00
      -24  1    1    2    0    0 -1.9375420949e+03 -1.1736124991e+03 -9.6919121214e+03 9.9534400540e+03 7.9829010000e+01 0.0000e+00 -1.0000e+00
       24  1    1    2    0    0 +1.6652293768e+03 +9.7116902193e+02 +8.1722370849e+03 8.3969035834e+03 7.9829010000e+01 0.0000e+00 -1.0000e+00
       22  1    1    2    0    0 -1.9049067468e+01 +1.0810411512e+00 -4.3267320572e+01 4.7287383633e+01 0.0000000000e+00 0.0000e+00 1.0000e+00
       22  1    1    2    0    0 +2.9136178557e+02 +2.0136243602e+02 +1.5629423572e+03 1.6025689790e+03 0.0000000000e+00 0.0000e+00 -1.0000e+00
</event>
<event>
 6      1 +1.4834189e-01 1.00537500e+04 7.81653100e-03 6.93549000e-02
  1000022 -1    0    0    0    0 +0.0000000000e+00 +0.0000000000e+00 +4.4721471353e+01 1.0000100000e+04 1.0000000000e+04 0.0000e+00 -1.0000e+00
  1000022 -1    0    0    0    0 -0.0000000000e+00 -0.0000000000e+00 -4.4721471353e+01 1.0000100000e+04 1.0000000000e+04 0.0000e+00 -1.0000e+00
      -24  1    1    2    0    0 +4.7493078324e+03 -9.1119866786e+02 +7.0804919088e+03 8.5747271817e+03 7.9829010000e+01 0.0000e+00 -1.0000e+00
       24  1    1    2    0    0 -5.0785760738e+03 +9.0906646334e+02 -8.5033579655e+03 9.9464469100e+03 7.9829010000e+01 0.0000e+00 -1.0000e+00
       22  1    1    2    0    0 +2.0492642459e+02 +2.7702085491e+01 +1.2356248658e+03 1.2528092648e+03 0.0000000000e+00 0.0000e+00 1.0000e+00
       22  1    1    2    0    0 +1.2434181680e+02 -2.5569880970e+01 +1.8724119093e+02 2.2621664351e+02 0.0000000000e+00 0.0000e+00 -1.0000e+00
</event>
<event>
 6      1 +1.4834189e-01 1.00027900e+04 7.81653100e-03 6.93855700e-02
  1000022 -1    0    0    0    0 +0.0000000000e+00 +0.0000000000e+00 +4.4721471353e+01 1.0000100000e+04 1.0000000000e+04 0.0000e+00 1.0000e+00
  1000022 -1    0    0    0    0 -0.0000000000e+00 -0.0000000000e+00 -4.4721471353e+01 1.0000100000e+04 1.0000000000e+04 0.0000e+00 1.0000e+00
      -24  1    1    2    0    0 -3.5534998950e+03 +7.0667311504e+03 +5.8428359750e+03 9.8341830143e+03 7.9829010000e+01 0.0000e+00 1.0000e+00
       24  1    1    2    0    0 +4.2793758083e+02 -4.6500914718e+02 -5.1451896567e+02 8.1882019816e+02 7.9829010000e+01 0.0000e+00 1.0000e+00
       22  1    1    2    0    0 +3.2186651874e+03 -6.6526104720e+03 -5.4523584528e+03 9.1839667017e+03 0.0000000000e+00 0.0000e+00 1.0000e+00
       22  1    1    2    0    0 -9.3102873154e+01 +5.0888468827e+01 +1.2404144340e+02 1.6323008586e+02 0.0000000000e+00 0.0000e+00 -1.0000e+00
</event>
<event>
 6      1 +1.4834189e-01 1.00550000e+04 7.81653100e-03 6.93541500e-02
  1000022 -1    0    0    0    0 +0.0000000000e+00 +0.0000000000e+00 +4.4721471353e+01 1.0000100000e+04 1.0000000000e+04 0.0000e+00 1.0000e+00
  1000022 -1    0    0    0    0 -0.0000000000e+00 -0.0000000000e+00 -4.4721471353e+01 1.0000100000e+04 1.0000000000e+04 0.0000e+00 1.0000e+00
      -24  1    1    2    0    0 -6.6806763519e+02 +9.5589868669e+01 -8.7026453124e+02 1.1041670224e+03 7.9829010000e+01 0.0000e+00 0.0000e+00
       24  1    1    2    0    0 +2.0194469857e+03 +6.5062934053e+01 +2.1980928472e+03 2.9867012152e+03 7.9829010000e+01 0.0000e+00 -1.0000e+00
       22  1    1    2    0    0 -4.6526861474e+03 +1.3038091608e+03 -7.4038126157e+03 8.8410320643e+03 0.0000000000e+00 0.0000e+00 -1.0000e+00
       22  1    1    2    0    0 +3.3013067969e+03 -1.4644619635e+03 +6.0759842998e+03 7.0682996980e+03 0.0000000000e+00 0.0000e+00 -1.0000e+00
</event>
<event>
 6      1 +1.4834189e-01 1.00290300e+04 7.81653100e-03 6.93697500e-02
  1000022 -1    0    0    0    0 +0.0000000000e+00 +0.0000000000e+00 +4.4721471353e+01 1.0000100000e+04 1.0000000000e+04 0.0000e+00 1.0000e+00
  1000022 -1    0    0    0    0 -0.0000000000e+00 -0.0000000000e+00 -4.4721471353e+01 1.0000100000e+04 1.0000000000e+04 0.0000e+00 1.0000e+00
      -24  1    1    2    0    0 +5.9276397959e+03 +4.0083279989e+03 +6.5591823825e+03 9.7073607687e+03 7.9829010000e+01 0.0000e+00 -1.0000e+00
       24  1    1    2    0    0 -3.5024267535e+03 -2.2535453649e+03 -4.0780312142e+03 5.8294228814e+03 7.9829010000e+01 0.0000e+00 -1.0000e+00
       22  1    1    2    0    0 -2.6856177802e+03 -1.6933422022e+03 -2.6597191393e+03 4.1417455952e+03 0.0000000000e+00 0.0000e+00 -1.0000e+00
       22  1    1    2    0    0 +2.6040473784e+02 -6.1440431824e+01 +1.7856797103e+02 3.2167075470e+02 0.0000000000e+00 0.0000e+00 1.0000e+00
</event>
<event>
 6      1 +1.4834189e-01 1.01419600e+04 7.81653100e-03 6.93022400e-02
  1000022 -1    0    0    0    0 +0.0000000000e+00 +0.0000000000e+00 +4.4721471353e+01 1.0000100000e+04 1.0000000000e+04 0.0000e+00 1.0000e+00
  1000022 -1    0    0    0    0 -0.0000000000e+00 -0.0000000000e+00 -4.4721471353e+01 1.0000100000e+04 1.0000000000e+04 0.0000e+00 1.0000e+00
      -24  1    1    2    0    0 -4.8003902852e+03 +8.6100442114e+03 +4.2881025100e+01 9.8582361336e+03 7.9829010000e+01 0.0000e+00 -1.0000e+00
       24  1    1    2    0    0 +8.1590473916e+02 -1.6621908009e+03 -1.3398754920e+02 1.8581991649e+03 7.9829010000e+01 0.0000e+00 1.0000e+00
       22  1    1    2    0    0 +3.6388241213e+03 -5.9388588772e+03 -6.3442381240e+02 6.9938243703e+03 0.0000000000e+00 0.0000e+00 -1.0000e+00
       22  1    1    2    0    0 +3.4566142473e+02 -1.0089945333e+03 +7.2553033651e+02 1.2899403312e+03 0.0000000000e+00 0.0000e+00 -1.0000e+00
</event>
<event>
 6      1 +1.4834189e-01 1.00004800e+04 7.81653100e-03 6.93869600e-02
  1000022 -1    0    0    0    0 +0.0000000000e+00 +0.0000000000e+00 +4.4721471353e+01 1.0000100000e+04 1.0000000000e+04 0.0000e+00 1.0000e+00
  1000022 -1    0    0    0    0 -0.0000000000e+00 -0.0000000000e+00 -4.4721471353e+01 1.0000100000e+04 1.0000000000e+04 0.0000e+00 1.0000e+00
      -24  1    1    2    0    0 -6.4632871139e+03 +6.9278684089e+03 +2.2003291955e+03 9.7271404969e+03 7.9829010000e+01 0.0000e+00 1.0000e+00
       24  1    1    2    0    0 +6.3080290334e+03 -6.7919015170e+03 -2.1694454980e+03 9.5201902787e+03 7.9829010000e+01 0.0000e+00 1.0000e+00
       22  1    1    2    0    0 -1.6512375528e+02 +2.0619239350e+02 +7.0250413703e+01 2.7334278539e+02 0.0000000000e+00 0.0000e+00 -1.0000e+00
       22  1    1    2    0    0 +3.2038183574e+02 -3.4215928543e+02 -1.0113411122e+02 4.7952643904e+02 0.0000000000e+00 0.0000e+00 1.0000e+00
</event>
<event>
 6      1 +1.4834189e-01 1.00142300e+04 7.81653100e-03 6.93786700e-02
  1000022 -1    0    0    0    0 +0.0000000000e+00 +0.0000000000e+00 +4.4721471353e+01 1.0000100000e+04 1.0000000000e+04 0.0000e+00 -1.0000e+00
  1000022 -1    0    0    0    0 -0.0000000000e+00 -0.0000000000e+00 -4.4721471353e+01 1.0000100000e+04 1.0000000000e+04 0.0000e+00 -1.0000e+00
      -24  1    1    2    0    0 -5.5318810629e+03 -7.9322392163e+03 +1.2501584321e+03 9.7514817261e+03 7.9829010000e+01 0.0000e+00 1.0000e+00
       24  1    1    2    0    0 +5.5639491018e+03 +8.1722569491e+03 -1.2420671376e+03 9.9645580280e+03 7.9829010000e+01 0.0000e+00 1.0000e+00
       22  1    1    2    0    0 -3.9961675337e+01 -2.5964792902e+02 -4.8076129107e+00 2.6274911167e+02 0.0000000000e+00 0.0000e+00 -1.0000e+00
       22  1    1    2    0    0 +7.8936364051e+00 +1.9630196264e+01 -3.2836816322e+00 2.1411134162e+01 0.0000000000e+00 0.0000e+00 1.0000e+00
</event>
<event>
 6      1 +1.4834189e-01 1.00294000e+04 7.81653100e-03 6.93695300e-02
  1000022 -1    0    0    0    0 +0.0000000000e+00 +0.0000000000e+00 +4.4721471353e+01 1.0000100000e+04 1.0000000000e+04 0.0000e+00 -1.0000e+00
  1000022 -1    0    0    0    0 -0.0000000000e+00 -0.0000000000e+00 -4.4721471353e+01 1.0000100000e+04 1.0000000000e+04 0.0000e+00 -1.0000e+00
      -24  1    1    2    0    0 -5.5266135719e+03 -1.6333250885e+03 -8.1362970692e+03 9.9708029309e+03 7.9829010000e+01 0.0000e+00 -1.0000e+00
       24  1    1    2    0    0 +5.7413076236e+02 +1.5201324045e+02 +4.1544543833e+02 7.2917881252e+02 7.9829010000e+01 0.0000e+00 -1.0000e+00
       22  1    1    2    0    0 +4.9479477548e+03 +1.4599899478e+03 +7.7074860482e+03 9.2746481774e+03 0.0000000000e+00 0.0000e+00 -1.0000e+00
       22  1    1    2    0    0 +4.5350547525e+00 +2.1321900237e+01 +1.3365582586e+01 2.5570079178e+01 0.0000000000e+00 0.0000e+00 -1.0000e+00
</event>
<event>
 6      1 +1.4834189e-01 1.10428600e+04 7.81653100e-03 6.87934600e-02
  1000022 -1    0    0    0    0 +0.0000000000e+00 +0.0000000000e+00 +4.4721471353e+01 1.0000100000e+04 1.0000000000e+04 0.0000e+00 -1.0000e+00
  1000022 -1    0    0    0    0 -0.0000000000e+00 -0.0000000000e+00 -4.4721471353e+01 1.0000100000e+04 1.0000000000e+04 0.0000e+00 -1.0000e+00
      -24  1    1    2    0    0 -8.8793207615e+03 +2.3241569428e+02 +1.1537717469e+03 8.9573386760e+03 7.9829010000e+01 0.0000e+00 1.0000e+00
       24  1    1    2    0    0 +6.6121619104e+02 -2.8829746483e+02 +1.0282304058e+02 7.3298535322e+02 7.9829010000e+01 0.0000e+00 -1.0000e+00
       22  1    1    2    0    0 +7.8995792577e+03 -1.0095740860e+03 +7.6717713677e+02 8.0006970348e+03 0.0000000000e+00 0.0000e+00 1.0000e+00
       22  1    1    2    0    0 +3.1852531281e+02 +1.0654558566e+03 -2.0237719242e+03 2.3091789360e+03 0.0000000000e+00 0.0000e+00 1.0000e+00
</event>
<event>
 6      1 +1.4834189e-01 1.00102100e+04 7.81653100e-03 6.93810900e-02
  1000022 -1    0    0    0    0 +0.0000000000e+00 +0.0000000000e+00 +4.4721471353e+01 1.0000100000e+04 1.0000000000e+04 0.0000e+00 -1.0000e+00
  1000022 -1    0    0    0    0 -0.0000000000e+00 -0.0000000000e+00 -4.4721471353e+01 1.0000100000e+04 1.0000000000e+04 0.0000e+00 -1.0000e+00
      -24  1    1    2    0    0 +1.4514440061e+03 +5.6260280925e+03 +4.6924490668e+03 7.4688909963e+03 7.9829010000e+01 0.0000e+00 -1.0000e+00
       24  1    1    2    0    0 -4.1699848488e+02 -1.0332738286e+03 -1.0979679853e+03 1.5663489103e+03 7.9829010000e+01 0.0000e+00 1.0000e+00
       22  1    1    2    0    0 -1.5073978100e+03 -6.5167546068e+03 -5.1534848107e+03 8.4438583868e+03 0.0000000000e+00 0.0000e+00 -1.0000e+00
       22  1    1    2    0    0 +4.7295228884e+02 +1.9240003429e+03 +1.5590037292e+03 2.5211017065e+03 0.0000000000e+00 0.0000e+00 -1.0000e+00
</event>
<event>
 6      1 +1.4834189e-01 1.00902700e+04 7.81653100e-03 6.93330300e-02
  1000022 -1    0    0    0    0 +0.0000000000e+00 +0.0000000000e+00 +4.4721471353e+01 1.0000100000e+04 1.0000000000e+04 0.0000e+00 1.0000e+00
  1000022 -1    0    0    0    0 -0.0000000000e+00 -0.0000000000e+00 -4.4721471353e+01 1.0000100000e+04 1.0000000000e+04 0.0000e+00 1.0000e+00
      -24  1    1    2    0    0 +7.8510396897e+02 -6.0325780307e+02 -1.8016015069e+02 1.0095239323e+03 7.9829010000e+01 0.0000e+00 -1.0000e+00
       24  1    1    2    0    0 -6.4829735786e+03 +7.3193809026e+03 +9.2902950616e+02 9.8220034470e+03 7.9829010000e+01 0.0000e+00 -1.0000e+00
       22  1    1    2    0    0 +1.3742507021e+02 +1.7528801048e+02 +1.4952058474e+02 2.6826841373e+02 0.0000000000e+00 0.0000e+00 -1.0000e+00
       22  1    1    2    0    0 +5.5604445395e+03 -6.8914111100e+03 -8.9838994022e+02 8.9004042070e+03 0.0000000000e+00 0.0000e+00 -1.0000e+00
</event>
<event>
 6      1 +1.4834189e-01 1.00010700e+04 7.81653100e-03 6.93866100e-02
  1000022 -1    0    0    0    0 +0.0000000000e+00 +0.0000000000e+00 +4.4721471353e+01 1.0000100000e+04 1.0000000000e+04 0.0000e+00 -1.0000e+00
  1000022 -1    0    0    0    0 -0.0000000000e+00 -0.0000000000e+00 -4.4721471353e+01 1.0000100000e+04 1.0000000000e+04 0.0000e+00 -1.0000e+00
      -24  1    1    2    0    0 -6.5637605073e+03 -6.3217766497e+03 +3.6072547061e+03 9.8013504779e+03 7.9829010000e+01 0.0000e+00 -1.0000e+00
       24  1    1    2    0    0 +4.9634679695e+03 +4.6558494388e+03 -2.7053175264e+03 7.3238011900e+03 7.9829010000e+01 0.0000e+00 -1.0000e+00
       22  1    1    2    0    0 -1.5764277244e+02 -1.1207239913e+02 +4.9773106541e+01 1.9972187783e+02 0.0000000000e+00 0.0000e+00 1.0000e+00
       22  1    1    2    0    0 +1.7579353102e+03 +1.7779996101e+03 -9.5171028619e+02 2.6753264543e+03 0.0000000000e+00 0.0000e+00 -1.0000e+00
</event>
<event>
 6      1 +1.4834189e-01 1.00128300e+04 7.81653100e-03 6.93795100e-02
  1000022 -1    0    0    0    0 +0.0000000000e+00 +0.0000000000e+00 +4.4721471353e+01 1.0000100000e+04 1.0000000000e+04 0.0000e+00 1.0000e+00
  1000022 -1    0    0    0    0 -0.0000000000e+00 -0.0000000000e+00 -4.4721471353e+01 1.0000100000e+04 1.0000000000e+04 0.0000e+00 1.0000e+00
      -24  1    1    2    0    0 +2.7615468638e+02 -3.0857749186e+03 +9.4943615557e+03 9.9873691371e+03 7.9829010000e+01 0.0000e+00 -1.0000e+00
       24  1    1    2    0    0 -2.1161076023e+02 +2.2394771432e+03 -7.0381717968e+03 7.3893350107e+03 7.9829010000e+01 0.0000e+00 -1.0000e+00
       22  1    1    2    0    0 -3.2880171294e+01 +8.6127874229e+00 -6.8447321576e+00 3.4671834820e+01 0.0000000000e+00 0.0000e+00 1.0000e+00
       22  1    1    2    0    0 -3.1663754855e+01 +8.3768498801e+02 -2.4493450268e+03 2.5888240173e+03 0.0000000000e+00 0.0000e+00 -1.0000e+00
</event>
<event>
 6      1 +1.4834189e-01 1.00456700e+04 7.81653100e-03 6.93597500e-02
  1000022 -1    0    0    0    0 +0.0000000000e+00 +0.0000000000e+00 +4.4721471353e+01 1.0000100000e+04 1.0000000000e+04 0.0000e+00 1.0000e+00
  1000022 -1    0    0    0    0 -0.0000000000e+00 -0.0000000000e+00 -4.4721471353e+01 1.0000100000e+04 1.0000000000e+04 0.0000e+00 1.0000e+00
      -24  1    1    2    0    0 -9.3064055873e+03 +1.9756342640e+03 -2.1038422799e+03 9.7439643221e+03 7.9829010000e+01 0.0000e+00 1.0000e+00
       24  1    1    2    0    0 +9.4911958051e+03 -2.1876687966e+03 +2.0536820930e+03 9.9545303950e+03 7.9829010000e+01 0.0000e+00 1.0000e+00
       22  1    1    2    0    0 -3.7969749980e+01 +1.0210443664e+01 -1.7621355843e+01 4.3086741059e+01 0.0000000000e+00 0.0000e+00 1.0000e+00
       22  1    1    2    0    0 -1.4682046781e+02 +2.0182408897e+02 +6.7781542679e+01 2.5861854184e+02 0.0000000000e+00 0.0000e+00 1.0000e+00
</event>
<event>
 6      1 +1.4834189e-01 1.00008000e+04 7.81653100e-03 6.93867700e-02
  1000022 -1    0    0    0    0 +0.0000000000e+00 +0.0000000000e+00 +4.4721471353e+01 1.0000100000e+04 1.0000000000e+04 0.0000e+00 1.0000e+00
  1000022 -1    0    0    0    0 -0.0000000000e+00 -0.0000000000e+00 -4.4721471353e+01 1.0000100000e+04 1.0000000000e+04 0.0000e+00 1.0000e+00
      -24  1    1    2    0    0 -6.6872710616e+03 +7.3967570969e+03 -4.4004987642e+01 9.9719566240e+03 7.9829010000e+01 0.0000e+00 -1.0000e+00
       24  1    1    2    0    0 +6.0772867284e+03 -6.8296817492e+03 +6.1713207985e+01 9.1426554111e+03 7.9829010000e+01 0.0000e+00 -1.0000e+00
       22  1    1    2    0    0 -1.1933583406e+01 +2.4096737736e+01 -5.4727467429e+00 2.7441103100e+01 0.0000000000e+00 0.0000e+00 1.0000e+00
       22  1    1    2    0    0 +6.2191791664e+02 -5.9117208537e+02 -1.2235473600e+01 8.5814686177e+02 0.0000000000e+00 0.0000e+00 1.0000e+00
</event>
<event>
 6      1 +1.4834189e-01 1.00818800e+04 7.81653100e-03 6.93380500e-02
  1000022 -1    0    0    0    0 +0.0000000000e+00 +0.0000000000e+00 +4.4721471353e+01 1.0000100000e+04 1.0000000000e+04 0.0000e+00 -1.0000e+00
  1000022 -1    0    0    0    0 -0.0000000000e+00 -0.0000000000e+00 -4.4721471353e+01 1.0000100000e+04 1.0000000000e+04 0.0000e+00 -1.0000e+00
      -24  1    1    2    0    0 -4.1125519453e+03 +2.4107781637e+03 -1.8373992908e+03 5.1095345857e+03 7.9829010000e+01 0.0000e+00 1.0000e+00
       24  1    1    2    0    0 +7.1106201740e+03 -5.8655524730e+03 +3.6607516419e+03 9.9183214471e+03 7.9829010000e+01 0.0000e+00 1.0000e+00
       22  1    1    2    0    0 -6.4755661220e+02 +3.6370854420e+02 -2.8776659655e+02 7.9650680174e+02 0.0000000000e+00 0.0000e+00 1.0000e+00
       22  1    1    2    0    0 -2.3505116165e+03 +3.0910657651e+03 -1.5355857546e+03 4.1758371655e+03 0.0000000000e+00 0.0000e+00 1.0000e+00
</event>
<event>
 6      1 +1.4834189e-01 1.00055100e+04 7.81653100e-03 6.93839300e-02
  1000022 -1    0    0    0    0 +0.0000000000e+00 +0.0000000000e+00 +4.4721471353e+01 1.0000100000e+04 1.0000000000e+04 0.0000e+00 -1.0000e+00
  1000022 -1    0    0    0    0 -0.0000000000e+00 -0.0000000000e+00 -4.4721471353e+01 1.0000100000e+04 1.0000000000e+04 0.0000e+00 -1.0000e+00
      -24  1    1    2    0    0 -1.3021141189e+03 +6.0319140423e+03 -6.6000224934e+03 9.0358263472e+03 7.9829010000e+01 0.0000e+00 -1.0000e+00
       24  1    1    2    0    0 +1.4987520915e+03 -6.4833636331e+03 +7.3565858782e+03 9.9199793491e+03 7.9829010000e+01 0.0000e+00 -1.0000e+00
       22  1    1    2    0    0 -1.7778439023e+02 +4.9105586599e+02 -8.1703711736e+02 9.6968696189e+02 0.0000000000e+00 0.0000e+00 -1.0000e+00
       22  1    1    2    0    0 -1.8853582431e+01 -3.9606275172e+01 +6.0473732529e+01 7.4707341871e+01 0.0000000000e+00 0.0000e+00 1.0000e+00
</event>
<event>
 6      1 +1.4834189e-01 1.00280200e+04 7.81653100e-03 6.93703700e-02
  1000022 -1    0    0    0    0 +0.0000000000e+00 +0.0000000000e+00 +4.4721471353e+01 1.0000100000e+04 1.0000000000e+04 0.0000e+00 -1.0000e+00
  1000022 -1    0    0    0    0 -0.0000000000e+00 -0.0000000000e+00 -4.4721471353e+01 1.0000100000e+04 1.0000000000e+04 0.0000e+00 -1.0000e+00
      -24  1    1    2    0    0 +8.5656302139e+03 +1.6961285620e+03 +3.7985584695e+03 9.5227250394e+03 7.9829010000e+01 0.0000e+00 1.0000e+00
       24  1    1    2    0    0 -8.4968345023e+03 -1.4089459188e+03 -3.7036719436e+03 9.3757604331e+03 7.9829010000e+01 0.0000e+00 1.0000e+00
       22  1    1    2    0    0 +4.1085809229e+02 +6.7081130300e+01 +1.6943710840e+02 4.4945876757e+02 0.0000000000e+00 0.0000e+00 1.0000e+00
       22  1    1    2    0    0 -4.7965380384e+02 -3.5426377346e+02 -2.6432363431e+02 6.5225575995e+02 0.0000000000e+00 0.0000e+00 -1.0000e+00
</event>
<event>
 6      1 +1.4834189e-01 1.11039200e+04 7.81653100e-03 6.87607500e-02
  1000022 -1    0    0    0    0 +0.0000000000e+00 +0.0000000000e+00 +4.4721471353e+01 1.0000100000e+04 1.0000000000e+04 0.0000e+00 -1.0000e+00
  1000022 -1    0    0    0    0 -0.0000000000e+00 -0.0000000000e+00 -4.4721471353e+01 1.0000100000e+04 1.0000000000e+04 0.0000e+00 -1.0000e+00
      -24  1    1    2    0    0 +1.1563579897e+03 -6.5037905982e+03 -3.5236137101e+03 7.4872346159e+03 7.9829010000e+01 0.0000e+00 1.0000e+00
       24  1    1    2    0    0 +8.1523903471e+01 +6.4387222499e+03 +5.0562294337e+03 8.1875282665e+03 7.9829010000e+01 0.0000e+00 1.0000e+00
       22  1    1    2    0    0 +9.2569644302e+02 -1.0602124627e+03 +6.6755483972e+01 1.4090495610e+03 0.0000000000e+00 0.0000e+00 1.0000e+00
       22  1    1    2    0    0 -2.1635783362e+03 +1.1252808110e+03 -1.5993712076e+03 2.9163875566e+03 0.0000000000e+00 0.0000e+00 1.0000e+00
</event>
<event>
 6      1 +1.4834189e-01 1.00058600e+04 7.81653100e-03 6.93837200e-02
  1000022 -1    0    0    0    0 +0.0000000000e+00 +0.0000000000e+00 +4.4721471353e+01 1.0000100000e+04 1.0000000000e+04 0.0000e+00 -1.0000e+00
  1000022 -1    0    0    0    0 -0.0000000000e+00 -0.0000000000e+00 -4.4721471353e+01 1.0000100000e+04 1.0000000000e+04 0.0000e+00 -1.0000e+00
      -24  1    1    2    0    0 +3.0536652111e+03 +3.4169287733e+03 -8.8789170811e+03 9.9920876031e+03 7.9829010000e+01 0.0000e+00 1.0000e+00
       24  1    1    2    0    0 -1.7904763909e+03 -2.0774915747e+03 +5.3981919068e+03 6.0554624500e+03 7.9829010000e+01 0.0000e+00 1.0000e+00
       22  1    1    2    0    0 -7.3171810953e+00 +1.1656974992e+01 +4.8191123022e-01 1.3771653625e+01 0.0000000000e+00 0.0000e+00 -1.0000e+00
       22  1    1    2    0    0 -1.2558716391e+03 -1.3510941736e+03 +3.4802432630e+03 3.9388782933e+03 0.0000000000e+00 0.0000e+00 1.0000e+00
</event>
<event>
 6      1 +1.4834189e-01 1.00002400e+04 7.81653100e-03 6.93871100e-02
  1000022 -1    0    0    0    0 +0.0000000000e+00 +0.0000000000e+00 +4.4721471353e+01 1.0000100000e+04 1.0000000000e+04 0.0000e+00 -1.0000e+00
  1000022 -1    0    0    0    0 -0.0000000000e+00 -0.0000000000e+00 -4.4721471353e+01 1.0000100000e+04 1.0000000000e+04 0.0000e+00 -1.0000e+00
      -24  1    1    2    0    0 +2.7519803881e+03 -8.7464418005e+03 -3.8371628184e+03 9.9400116394e+03 7.9829010000e+01 0.0000e+00 -1.0000e+00
       24  1    1    2    0    0 -2.7511911815e+03 +8.7348370811e+03 +3.8291501897e+03 9.9264895908e+03 7.9829010000e+01 0.0000e+00 -1.0000e+00
       22  1    1    2    0    0 -1.6549529308e+01 +6.2713265573e+01 +3.5098474502e+01 7.3747837335e+01 0.0000000000e+00 0.0000e+00 1.0000e+00
       22  1    1    2    0    0 +1.5760322695e+01 -5.1108546088e+01 -2.7085845839e+01 5.9950932432e+01 0.0000000000e+00 0.0000e+00 -1.0000e+00
</event>
<event>
 6      1 +1.4834189e-01 1.00028900e+04 7.81653100e-03 6.93855100e-02
  1000022 -1    0    0    0    0 +0.0000000000e+00 +0.0000000000e+00 +4.4721471353e+01 1.0000100000e+04 1.0000000000e+04 0.0000e+00 1.0000e+00
  1000022 -1    0    0    0    0 -0.0000000000e+00 -0.0000000000e+00 -4.4721471353e+01 1.0000100000e+04 1.0000000000e+04 0.0000e+00 1.0000e+00
      -24  1    1    2    0    0 -8.3613282559e+03 -3.6811360574e+03 -4.0253133195e+03 9.9835911809e+03 7.9829010000e+01 0.0000e+00 1.0000e+00
       24  1    1    2    0    0 +7.4887095881e+02 +3.5397780470e+02 +4.3441399777e+02 9.3872050764e+02 7.9829010000e+01 0.0000e+00 0.0000e+00
       22  1    1    2    0    0 +7.6235515229e+03 +3.3340658378e+03 +3.5950792284e+03 9.0641672255e+03 0.0000000000e+00 0.0000e+00 1.0000e+00
       22  1    1    2    0    0 -1.1094225810e+01 -6.9075851781e+00 -4.1799067030e+00 1.3721085940e+01 0.0000000000e+00 0.0000e+00 1.0000e+00
</event>
<event>
 6      1 +1.4834189e-01 1.00042800e+04 7.81653100e-03 6.93846700e-02
  1000022 -1    0    0    0    0 +0.0000000000e+00 +0.0000000000e+00 +4.4721471353e+01 1.0000100000e+04 1.0000000000e+04 0.0000e+00 1.0000e+00
  1000022 -1    0    0    0    0 -0.0000000000e+00 -0.0000000000e+00 -4.4721471353e+01 1.0000100000e+04 1.0000000000e+04 0.0000e+00 1.0000e+00
      -24  1    1    2    0    0 +4.4932000034e+03 +1.1984824331e+03 +8.8479796549e+03 9.9959153187e+03 7.9829010000e+01 0.0000e+00 1.0000e+00
       24  1    1    2    0    0 -2.7441708549e+03 -8.7474983640e+02 -5.4366497247e+03 6.1529825172e+03 7.9829010000e+01 0.0000e+00 1.0000e+00
       22  1    1    2    0    0 -9.7410059183e+00 -1.0557696239e+01 -6.9346726181e+01 7.0818928106e+01 0.0000000000e+00 0.0000e+00 -1.0000e+00
       22  1    1    2    0    0 -1.7392881427e+03 -3.1317490045e+02 -3.3419832041e+03 3.7804832360e+03 0.0000000000e+00 0.0000e+00 1.0000e+00
</event>
<event>
 6      1 +1.4834189e-01 6.90026100e+03 7.81653100e-03 7.17034400e-02
  1000022 -1    0    0    0    0 +0.0000000000e+00 +0.0000000000e+00 +4.4721471353e+01 1.0000100000e+04 1.0000000000e+04 0.0000e+00 -1.0000e+00
  1000022 -1    0    0    0    0 -0.0000000000e+00 -0.0000000000e+00 -4.4721471353e+01 1.0000100000e+04 1.0000000000e+04 0.0000e+00 -1.0000e+00
      -24  1    1    2    0    0 +5.3916296651e+02 +2.2042175127e+03 +4.7218357967e+03 5.2394062172e+03 7.9829010000e+01 0.0000e+00 1.0000e+00
       24  1    1    2    0    0 -6.4048918802e+03 -2.0229135484e+03 -1.5208281878e+03 6.8872425737e+03 7.9829010000e+01 0.0000e+00 1.0000e+00
       22  1    1    2    0    0 -6.4256803548e+02 -1.8746440974e+02 -1.5173480411e+02 6.8633813527e+02 0.0000000000e+00 0.0000e+00 1.0000e+00
       22  1    1    2    0    0 +6.5082969492e+03 +6.1604454720e+00 -3.0492728048e+03 7.1872130738e+03 0.0000000000e+00 0.0000e+00 1.0000e+00
</event>
<event>
 6      1 +1.4834189e-01 1.00248700e+04 7.81653100e-03 6.93722600e-02
  1000022 -1    0    0    0    0 +0.0000000000e+00 +0.0000000000e+00 +4.4721471353e+01 1.0000100000e+04 1.0000000000e+04 0.0000e+00 1.0000e+00
  1000022 -1    0    0    0    0 -0.0000000000e+00 -0.0000000000e+00 -4.4721471353e+01 1.0000100000e+04 1.0000000000e+04 0.0000e+00 1.0000e+00
      -24  1    1    2    0    0 -7.0268113397e+03 +1.3035974505e+03 -6.9588300357e+03 9.9753261628e+03 7.9829010000e+01 0.0000e+00 -1.0000e+00
       24  1    1    2    0    0 +6.1877749566e+03 -1.4586335899e+03 +6.1627844553e+03 8.8545161233e+03 7.9829010000e+01 0.0000e+00 -1.0000e+00
       22  1    1    2    0    0 +4.6146882076e+01 -1.1635655235e+01 +4.8814980986e+01 6.8174962902e+01 0.0000000000e+00 0.0000e+00 1.0000e+00
       22  1    1    2    0    0 +7.9288950105e+02 +1.6667179472e+02 +7.4723059940e+02 1.1021827510e+03 0.0000000000e+00 0.0000e+00 1.0000e+00
</event>
<event>
 6      1 +1.4834189e-01 1.00874500e+04 7.81653100e-03 6.93347200e-02
  1000022 -1    0    0    0    0 +0.0000000000e+00 +0.0000000000e+00 +4.4721471353e+01 1.0000100000e+04 1.0000000000e+04 0.0000e+00 1.0000e+00
  1000022 -1    0    0    0    0 -0.0000000000e+00 -0.0000000000e+00 -4.4721471353e+01 1.0000100000e+04 1.0000000000e+04 0.0000e+00 1.0000e+00
      -24  1    1    2    0    0 +1.8341209985e+03 +8.2668041642e+03 +3.9162977982e+03 9.3299416955e+03 7.9829010000e+01 0.0000e+00 1.0000e+00
       24  1    1    2    0    0 -1.4778276858e+03 -8.7496473333e+03 -4.3637780911e+03 9.8888439681e+03 7.9829010000e+01 0.0000e+00 1.0000e+00
       22  1    1    2    0    0 -3.4204451539e+02 +5.0102234734e+02 +4.5365015764e+02 7.5750663929e+02 0.0000000000e+00 0.0000e+00 -1.0000e+00
       22  1    1    2    0    0 -1.4248797339e+01 -1.8179178249e+01 -6.1698647575e+00 2.3907697056e+01 0.0000000000e+00 0.0000e+00 -1.0000e+00
</event>
<event>
 6      1 +1.4834189e-01 1.00484000e+04 7.81653100e-03 6.93581100e-02
  1000022 -1    0    0    0    0 +0.0000000000e+00 +0.0000000000e+00 +4.4721471353e+01 1.0000100000e+04 1.0000000000e+04 0.0000e+00 1.0000e+00
  1000022 -1    0    0    0    0 -0.0000000000e+00 -0.0000000000e+00 -4.4721471353e+01 1.0000100000e+04 1.0000000000e+04 0.0000e+00 1.0000e+00
      -24  1    1    2    0    0 -7.4729248058e+03 -5.4683495864e+03 -1.9970266125e+03 9.4732222772e+03 7.9829010000e+01 0.0000e+00 -1.0000e+00
       24  1    1    2    0    0 +7.7072236996e+03 +5.6371245330e+03 +2.2441222833e+03 9.8092266590e+03 7.9829010000e+01 0.0000e+00 -1.0000e+00
       22  1    1    2    0    0 -3.7362045717e+02 -2.8484507267e+02 -9.1142123392e+01 4.7857689883e+02 0.0000000000e+00 0.0000e+00 -1.0000e+00
       22  1    1    2    0    0 +1.3932156340e+02 +1.1607012610e+02 -1.5595354740e+02 2.3917416488e+02 0.0000000000e+00 0.0000e+00 1.0000e+00
</event>
<event>
 6      1 +1.4834189e-01 8.03572900e+03 7.81653100e-03 7.07337300e-02
  1000022 -1    0    0    0    0 +0.0000000000e+00 +0.0000000000e+00 +4.4721471353e+01 1.0000100000e+04 1.0000000000e+04 0.0000e+00 1.0000e+00
  1000022 -1    0    0    0    0 -0.0000000000e+00 -0.0000000000e+00 -4.4721471353e+01 1.0000100000e+04 1.0000000000e+04 0.0000e+00 1.0000e+00
      -24  1    1    2    0    0 -5.6649457806e+02 -1.8105370399e+03 -2.9916834477e+03 3.5433745219e+03 7.9829010000e+01 0.0000e+00 -1.0000e+00
       24  1    1    2    0    0 -4.8735479510e+03 +6.8122316468e+01 +7.5910962416e+03 9.0214868565e+03 7.9829010000e+01 0.0000e+00 -1.0000e+00
       22  1    1    2    0    0 -2.8715151161e+01 -1.1901203009e+00 +4.3849855251e+01 5.2428867031e+01 0.0000000000e+00 0.0000e+00 1.0000e+00
       22  1    1    2    0    0 +5.4687576802e+03 +1.7436048438e+03 -4.6432626492e+03 7.3829097546e+03 0.0000000000e+00 0.0000e+00 -1.0000e+00
</event>
<event>
 6      1 +1.4834189e-01 1.00701100e+04 7.81653100e-03 6.93450900e-02
  1000022 -1    0    0    0    0 +0.0000000000e+00 +0.0000000000e+00 +4.4721471353e+01 1.0000100000e+04 1.0000000000e+04 0.0000e+00 -1.0000e+00
  1000022 -1    0    0    0    0 -0.0000000000e+00 -0.0000000000e+00 -4.4721471353e+01 1.0000100000e+04 1.0000000000e+04 0.0000e+00 -1.0000e+00
      -24  1    1    2    0    0 -8.6555662910e+02 -3.7237230291e+03 +4.4148468071e+02 3.8492314648e+03 7.9829010000e+01 0.0000e+00 1.0000e+00
       24  1    1    2    0    0 +9.1382303366e+02 +5.4831086470e+03 +4.4168384506e+02 5.5768279749e+03 7.9829010000e+01 0.0000e+00 1.0000e+00
       22  1    1    2    0    0 -7.2735540895e+02 -6.0384509479e+03 -1.3066625439e+03 6.2208763647e+03 0.0000000000e+00 0.0000e+00 1.0000e+00
       22  1    1    2    0    0 +6.7908900439e+02 +4.2790653299e+03 +4.2349401812e+02 4.3532641956e+03 0.0000000000e+00 0.0000e+00 1.0000e+00
</event>
<event>
 6      1 +1.4834189e-01 1.00680200e+04 7.81653100e-03 6.93463400e-02
  1000022 -1    0    0    0    0 +0.0000000000e+00 +0.0000000000e+00 +4.4721471353e+01 1.0000100000e+04 1.0000000000e+04 0.0000e+00 -1.0000e+00
  1000022 -1    0    0    0    0 -0.0000000000e+00 -0.0000000000e+00 -4.4721471353e+01 1.0000100000e+04 1.0000000000e+04 0.0000e+00 -1.0000e+00
      -24  1    1    2    0    0 -7.5459975547e+03 +2.4923489354e+03 -5.9571699581e+03 9.9321764428e+03 7.9829010000e+01 0.0000e+00 1.0000e+00
       24  1    1    2    0    0 +4.5832995323e+03 -1.4270643657e+03 +3.7426939124e+03 6.0874689075e+03 7.9829010000e+01 0.0000e+00 1.0000e+00
       22  1    1    2    0    0 +2.7690460996e+03 -8.8179770357e+02 +2.2937784857e+03 3.7022430003e+03 0.0000000000e+00 0.0000e+00 1.0000e+00
       22  1    1    2    0    0 +1.9365192278e+02 -1.8348686612e+02 -7.9302439938e+01 2.7831164944e+02 0.0000000000e+00 0.0000e+00 -1.0000e+00
</event>
<event>
 6      1 +1.4834189e-01 1.00040300e+04 7.81653100e-03 6.93848200e-02
  1000022 -1    0    0    0    0 +0.0000000000e+00 +0.0000000000e+00 +4.4721471353e+01 1.0000100000e+04 1.0000000000e+04 0.0000e+00 -1.0000e+00
  1000022 -1    0    0    0    0 -0.0000000000e+00 -0.0000000000e+00 -4.4721471353e+01 1.0000100000e+04 1.0000000000e+04 0.0000e+00 -1.0000e+00
      -24  1    1    2    0    0 -8.7189072062e+03 -3.0385425673e+03 -3.5074203119e+03 9.8772695478e+03 7.9829010000e+01 0.0000e+00 -1.0000e+00
       24  1    1    2    0    0 +6.9821828629e+03 +2.4662374424e+03 +2.9859854866e+03 7.9847158153e+03 7.9829010000e+01 0.0000e+00 -1.0000e+00
       22  1    1    2    0    0 -1.0097561646e+02 -4.4560260196e+01 -4.4221533825e+01 1.1890010918e+02 0.0000000000e+00 0.0000e+00 -1.0000e+00
       22  1    1    2    0    0 +1.8376999597e+03 +6.1686538506e+02 +5.6565635914e+02 2.0193145277e+03 0.0000000000e+00 0.0000e+00 1.0000e+00
</event>
<event>
 6      1 +1.4834189e-01 1.00707000e+04 7.81653100e-03 6.93447400e-02
  1000022 -1    0    0    0    0 +0.0000000000e+00 +0.0000000000e+00 +4.4721471353e+01 1.0000100000e+04 1.0000000000e+04 0.0000e+00 1.0000e+00
  1000022 -1    0    0    0    0 -0.0000000000e+00 -0.0000000000e+00 -4.4721471353e+01 1.0000100000e+04 1.0000000000e+04 0.0000e+00 1.0000e+00
      -24  1    1    2    0    0 -1.0208060458e+03 -8.0524469020e+02 -1.9939967637e+03 2.3817765972e+03 7.9829010000e+01 0.0000e+00 1.0000e+00
       24  1    1    2    0    0 +3.1735647176e+03 +2.0684087778e+03 +3.1518308727e+03 4.9285127990e+03 7.9829010000e+01 0.0000e+00 0.0000e+00
       22  1    1    2    0    0 +3.1941982281e+03 +2.1143751424e+03 +3.2150213007e+03 5.0009845558e+03 0.0000000000e+00 0.0000e+00 -1.0000e+00
       22  1    1    2    0    0 -5.3469568998e+03 -3.3775392300e+03 -4.3728554097e+03 7.6889260481e+03 0.0000000000e+00 0.0000e+00 -1.0000e+00
</event>
<event>
 6      1 +1.4834189e-01 9.44093900e+03 7.81653100e-03 6.97364100e-02
  1000022 -1    0    0    0    0 +0.0000000000e+00 +0.0000000000e+00 +4.4721471353e+01 1.0000100000e+04 1.0000000000e+04 0.0000e+00 1.0000e+00
  1000022 -1    0    0    0    0 -0.0000000000e+00 -0.0000000000e+00 -4.4721471353e+01 1.0000100000e+04 1.0000000000e+04 0.0000e+00 1.0000e+00
      -24  1    1    2    0    0 -1.1271219249e+03 -1.4854870448e+02 +2.5668318064e+02 1.1682163658e+03 7.9829010000e+01 0.0000e+00 -1.0000e+00
       24  1    1    2    0    0 +2.5504294685e+02 +1.3835435774e+02 +5.4884414086e+01 3.0589835369e+02 7.9829010000e+01 0.0000e+00 1.0000e+00
       22  1    1    2    0    0 +6.9626476373e+03 -2.7566629493e+02 +6.3980580134e+03 9.4598943107e+03 0.0000000000e+00 0.0000e+00 -1.0000e+00
       22  1    1    2    0    0 -6.0905686592e+03 +2.8586064167e+02 -6.7096256081e+03 9.0661909698e+03 0.0000000000e+00 0.0000e+00 -1.0000e+00
</event>
<event>
 6      1 +1.4834189e-01 1.02262800e+04 7.81653100e-03 6.92524100e-02
  1000022 -1    0    0    0    0 +0.0000000000e+00 +0.0000000000e+00 +4.4721471353e+01 1.0000100000e+04 1.0000000000e+04 0.0000e+00 1.0000e+00
  1000022 -1    0    0    0    0 -0.0000000000e+00 -0.0000000000e+00 -4.4721471353e+01 1.0000100000e+04 1.0000000000e+04 0.0000e+00 1.0000e+00
      -24  1    1    2    0    0 +4.0185670437e+03 -2.6799053055e+03 -5.3788049603e+03 7.2297087772e+03 7.9829010000e+01 0.0000e+00 -1.0000e+00
       24  1    1    2    0    0 -1.9002509848e+03 +1.8976775743e+03 +2.4805382109e+03 3.6567166240e+03 7.9829010000e+01 0.0000e+00 -1.0000e+00
       22  1    1    2    0    0 -3.3289367875e+03 +3.3326884737e+03 +3.9027572959e+03 6.1172009211e+03 0.0000000000e+00 0.0000e+00 -1.0000e+00
       22  1    1    2    0    0 +1.2106207287e+03 -2.5504607425e+03 -1.0044905466e+03 2.9965736777e+03 0.0000000000e+00 0.0000e+00 -1.0000e+00
</event>
<event>
 6      1 +1.4834189e-01 1.03526000e+04 7.81653100e-03 6.91786500e-02
  1000022 -1    0    0    0    0 +0.0000000000e+00 +0.0000000000e+00 +4.4721471353e+01 1.0000100000e+04 1.0000000000e+04 0.0000e+00 -1.0000e+00
  1000022 -1    0    0    0    0 -0.0000000000e+00 -0.0000000000e+00 -4.4721471353e+01 1.0000100000e+04 1.0000000000e+04 0.0000e+00 -1.0000e+00
      -24  1    1    2    0    0 -1.3621634939e+03 +3.6051488078e+02 -7.8137398738e+02 1.6131888737e+03 7.9829010000e+01 0.0000e+00 1.0000e+00
       24  1    1    2    0    0 +3.7887762066e+03 +4.3568349503e+03 +7.3168091518e+03 9.3208854066e+03 7.9829010000e+01 0.0000e+00 -1.0000e+00
       22  1    1    2    0    0 +1.4470408153e+02 +1.5785611387e+02 +2.4674785042e+02 3.2671444042e+02 0.0000000000e+00 0.0000e+00 -1.0000e+00
       22  1    1    2    0    0 -2.5713167943e+03 -4.8752059449e+03 -6.7821830148e+03 8.7394112793e+03 0.0000000000e+00 0.0000e+00 -1.0000e+00
</event>
<event>
 6      1 +1.4834189e-01 1.07387100e+04 7.81653100e-03 6.89595900e-02
  1000022 -1    0    0    0    0 +0.0000000000e+00 +0.0000000000e+00 +4.4721471353e+01 1.0000100000e+04 1.0000000000e+04 0.0000e+00 -1.0000e+00
  1000022 -1    0    0    0    0 -0.0000000000e+00 -0.0000000000e+00 -4.4721471353e+01 1.0000100000e+04 1.0000000000e+04 0.0000e+00 -1.0000e+00
      -24  1    1    2    0    0 +7.9115101113e+03 -3.9717164942e+03 -2.5763978238e+03 9.2201259519e+03 7.9829010000e+01 0.0000e+00 1.0000e+00
       24  1    1    2    0    0 -8.0045519060e+03 +2.7124784502e+03 +7.4318107876e+02 8.4846379619e+03 7.9829010000e+01 0.0000e+00 1.0000e+00
       22  1    1    2    0    0 +6.5457021997e+01 +1.2672163505e+03 +1.8629878753e+03 2.2540731408e+03 0.0000000000e+00 0.0000e+00 1.0000e+00
       22  1    1    2    0    0 +2.7584772711e+01 -7.9783064645e+00 -2.9771130195e+01 4.1362945405e+01 0.0000000000e+00 0.0000e+00 -1.0000e+00
</event>
<event>
 6      1 +1.4834189e-01 1.00607400e+04 7.81653100e-03 6.93507100e-02
  1000022 -1    0    0    0    0 +0.0000000000e+00 +0.0000000000e+00 +4.4721471353e+01 1.0000100000e+04 1.0000000000e+04 0.0000e+00 -1.0000e+00
  1000022 -1    0    0    0    0 -0.0000000000e+00 -0.0000000000e+00 -4.4721471353e+01 1.0000100000e+04 1.0000000000e+04 0.0000e+00 -1.0000e+00
      -24  1    1    2    0    0 -2.2914814067e+02 -3.1800675352e+02 +5.0516272175e+01 4.0318944710e+02 7.9829010000e+01 0.0000e+00 -1.0000e+00
       24  1    1    2    0    0 +1.4950733507e+02 +8.7061600229e+03 +3.1435735185e+03 9.2578616281e+03 7.9829010000e+01 0.0000e+00 1.0000e+00
       22  1    1    2    0    0 +9.8016080425e+01 -9.0244736316e+03 -3.4376721457e+03 9.6575525503e+03 0.0000000000e+00 0.0000e+00 1.0000e+00
       22  1    1    2    0    0 -1.8375274825e+01 +6.3632036221e+02 +2.4358235502e+02 6.8159637453e+02 0.0000000000e+00 0.0000e+00 1.0000e+00
</event>
<event>
 6      1 +1.4834189e-01 1.00001500e+04 7.81653100e-03 6.93871600e-02
  1000022 -1    0    0    0    0 +0.0000000000e+00 +0.0000000000e+00 +4.4721471353e+01 1.0000100000e+04 1.0000000000e+04 0.0000e+00 -1.0000e+00
  1000022 -1    0    0    0    0 -0.0000000000e+00 -0.0000000000e+00 -4.4721471353e+01 1.0000100000e+04 1.0000000000e+04 0.0000e+00 -1.0000e+00
      -24  1    1    2    0    0 -4.0417776224e+03 +1.6334667097e+03 -8.9669292029e+03 9.9707758897e+03 7.9829010000e+01 0.0000e+00 1.0000e+00
       24  1    1    2    0    0 +4.0423908864e+03 -1.6376824937e+03 +8.9174874572e+03 9.9272797507e+03 7.9829010000e+01 0.0000e+00 1.0000e+00
       22  1    1    2    0    0 -3.1575210498e+00 -1.5559277959e+01 +7.1015348901e+01 7.2768405571e+01 0.0000000000e+00 0.0000e+00 -1.0000e+00
       22  1    1    2    0    0 +2.5442570378e+00 +1.9775061978e+01 -2.1573603177e+01 2.9375954013e+01 0.0000000000e+00 0.0000e+00 1.0000e+00
</event>
<event>
 6      1 +1.4834189e-01 1.00162100e+04 7.81653100e-03 6.93774700e-02
  1000022 -1    0    0    0    0 +0.0000000000e+00 +0.0000000000e+00 +4.4721471353e+01 1.0000100000e+04 1.0000000000e+04 0.0000e+00 -1.0000e+00
  1000022 -1    0    0    0    0 -0.0000000000e+00 -0.0000000000e+00 -4.4721471353e+01 1.0000100000e+04 1.0000000000e+04 0.0000e+00 -1.0000e+00
      -24  1    1    2    0    0 +1.3397893674e+03 +5.5302996792e+02 -3.0809322741e+02 1.4839716311e+03 7.9829010000e+01 0.0000e+00 -1.0000e+00
       24  1    1    2    0    0 -7.9705857886e+03 -5.2184416593e+03 +2.6992307255e+03 9.9022517816e+03 7.9829010000e+01 0.0000e+00 1.0000e+00
       22  1    1    2    0    0 +6.7034742509e+03 +4.6928668710e+03 -2.4165260912e+03 8.5322426624e+03 0.0000000000e+00 0.0000e+00 1.0000e+00
       22  1    1    2    0    0 -7.2677829632e+01 -2.7455179581e+01 +2.5388593169e+01 8.1733924835e+01 0.0000000000e+00 0.0000e+00 1.0000e+00
</event>
<event>
 6      1 +1.4834189e-01 1.00834800e+04 7.81653100e-03 6.93370900e-02
  1000022 -1    0    0    0    0 +0.0000000000e+00 +0.0000000000e+00 +4.4721471353e+01 1.0000100000e+04 1.0000000000e+04 0.0000e+00 1.0000e+00
  1000022 -1    0    0    0    0 -0.0000000000e+00 -0.0000000000e+00 -4.4721471353e+01 1.0000100000e+04 1.0000000000e+04 0.0000e+00 1.0000e+00
      -24  1    1    2    0    0 +7.9976061414e+03 -8.1368442032e+02 +5.8061277154e+03 9.9167171003e+03 7.9829010000e+01 0.0000e+00 1.0000e+00
       24  1    1    2    0    0 -7.7505906254e+03 +8.8041939864e+02 -5.2729779992e+03 9.4158092064e+03 7.9829010000e+01 0.0000e+00 1.0000e+00
       22  1    1    2    0    0 -1.7778081167e+01 -9.1295938625e+01 -3.7922073786e+02 3.9046046740e+02 0.0000000000e+00 0.0000e+00 -1.0000e+00
       22  1    1    2    0    0 -2.2923743483e+02 +2.4560960301e+01 -1.5392897826e+02 2.7721322596e+02 0.0000000000e+00 0.0000e+00 1.0000e+00
</event>
<event>
 6      1 +1.4834189e-01 1.00023700e+04 7.81653100e-03 6.93858200e-02
  1000022 -1    0    0    0    0 +0.0000000000e+00 +0.0000000000e+00 +4.4721471353e+01 1.0000100000e+04 1.0000000000e+04 0.0000e+00 1.0000e+00
  1000022 -1    0    0    0    0 -0.0000000000e+00 -0.0000000000e+00 -4.4721471353e+01 1.0000100000e+04 1.0000000000e+04 0.0000e+00 1.0000e+00
      -24  1    1    2    0    0 -1.1966229891e+03 -9.8096114409e+03 +1.5132106485e+03 9.9978278809e+03 7.9829010000e+01 0.0000e+00 1.0000e+00
       24  1    1    2    0    0 +1.2080859997e+03 +9.6940614104e+03 -1.4887384226e+03 9.8821563018e+03 7.9829010000e+01 0.0000e+00 1.0000e+00
       22  1    1    2    0    0 -7.4136361665e+00 +1.7699722312e+01 -8.4997165570e+00 2.0987790563e+01 0.0000000000e+00 0.0000e+00 1.0000e+00
       22  1    1    2    0    0 -4.0493744630e+00 +9.7850308095e+01 -1.5972509279e+01 9.9228026689e+01 0.0000000000e+00 0.0000e+00 1.0000e+00
</event>
<event>
 6      1 +1.4834189e-01 1.00018800e+04 7.81653100e-03 6.93861200e-02
  1000022 -1    0    0    0    0 +0.0000000000e+00 +0.0000000000e+00 +4.4721471353e+01 1.0000100000e+04 1.0000000000e+04 0.0000e+00 -1.0000e+00
  1000022 -1    0    0    0    0 -0.0000000000e+00 -0.0000000000e+00 -4.4721471353e+01 1.0000100000e+04 1.0000000000e+04 0.0000e+00 -1.0000e+00
      -24  1    1    2    0    0 +3.6429626927e+03 -2.1545112123e+03 -9.0207685723e+03 9.9646241299e+03 7.9829010000e+01 0.0000e+00 1.0000e+00
       24  1    1    2    0    0 -5.2822205436e+02 +2.4409776334e+02 +1.2087981517e+03 1.3439374610e+03 7.9829010000e+01 0.0000e+00 0.0000e+00
       22  1    1    2    0    0 +1.3395946802e+01 -7.0479708026e+00 -3.0102399405e+01 3.3693912404e+01 0.0000000000e+00 0.0000e+00 1.0000e+00
       22  1    1    2    0    0 -3.1281365852e+03 +1.9174614198e+03 +7.8420728200e+03 8.6579444966e+03 0.0000000000e+00 0.0000e+00 1.0000e+00
</event>
<event>
 6      1 +1.4834189e-01 6.76246600e+03 7.81653100e-03 7.18338700e-02
  1000022 -1    0    0    0    0 +0.0000000000e+00 +0.0000000000e+00 +4.4721471353e+01 1.0000100000e+04 1.0000000000e+04 0.0000e+00 1.0000e+00
  1000022 -1    0    0    0    0 -0.0000000000e+00 -0.0000000000e+00 -4.4721471353e+01 1.0000100000e+04 1.0000000000e+04 0.0000e+00 1.0000e+00
      -24  1    1    2    0    0 +7.1802852541e+02 -4.7750949810e+02 +4.0539660004e+03 4.1454304104e+03 7.9829010000e+01 0.0000e+00 1.0000e+00
       24  1    1    2    0    0 +2.4912672304e+03 +4.7379167664e+03 +9.0009741037e+02 5.4287029499e+03 7.9829010000e+01 0.0000e+00 1.0000e+00
       22  1    1    2    0    0 +3.8593588433e+02 -1.5082474644e+02 +1.7393375137e+03 1.7880127509e+03 0.0000000000e+00 0.0000e+00 1.0000e+00
       22  1    1    2    0    0 -3.5952316401e+03 -4.1095825219e+03 -6.6934009245e+03 8.6380538888e+03 0.0000000000e+00 0.0000e+00 1.0000e+00
</event>
<event>
 6      1 +1.4834189e-01 1.00044700e+04 7.81653100e-03 6.93845500e-02
  1000022 -1    0    0    0    0 +0.0000000000e+00 +0.0000000000e+00 +4.4721471353e+01 1.0000100000e+04 1.0000000000e+04 0.0000e+00 1.0000e+00
  1000022 -1    0    0    0    0 -0.0000000000e+00 -0.0000000000e+00 -4.4721471353e+01 1.0000100000e+04 1.0000000000e+04 0.0000e+00 1.0000e+00
      -24  1    1    2    0    0 +7.1329663133e+03 +5.9355040765e+03 +2.8217533458e+03 9.6993856344e+03 7.9829010000e+01 0.0000e+00 1.0000e+00
       24  1    1    2    0    0 -7.2976600005e+02 -5.3974444892e+02 -1.8898421341e+02 9.3057519241e+02 7.9829010000e+01 0.0000e+00 1.0000e+00
       22  1    1    2    0    0 -6.6221147385e+03 -5.5773235834e+03 -2.7160075556e+03 9.0738987765e+03 0.0000000000e+00 0.0000e+00 1.0000e+00
       22  1    1    2    0    0 +2.1891442524e+02 +1.8156395583e+02 +8.3238423160e+01 2.9634039671e+02 0.0000000000e+00 0.0000e+00 1.0000e+00
</event>
<event>
 6      1 +1.4834189e-01 1.06604200e+04 7.81653100e-03 6.90032600e-02
  1000022 -1    0    0    0    0 +0.0000000000e+00 +0.0000000000e+00 +4.4721471353e+01 1.0000100000e+04 1.0000000000e+04 0.0000e+00 -1.0000e+00
  1000022 -1    0    0    0    0 -0.0000000000e+00 -0.0000000000e+00 -4.4721471353e+01 1.0000100000e+04 1.0000000000e+04 0.0000e+00 -1.0000e+00
      -24  1    1    2    0    0 +5.2463509049e+02 +3.2118030339e+02 +3.3854765935e+02 7.0667245167e+02 7.9829010000e+01 0.0000e+00 -1.0000e+00
       24  1    1    2    0    0 -9.0691424066e+03 -4.1088804811e+02 -2.1924910040e+03 9.3397838547e+03 7.9829010000e+01 0.0000e+00 -1.0000e+00
       22  1    1    2    0    0 +3.7784234775e+03 +2.3906085430e+03 +1.1324879447e+03 4.6123770581e+03 0.0000000000e+00 0.0000e+00 -1.0000e+00
       22  1    1    2    0    0 +4.7660838386e+03 -2.3009007983e+03 +7.2145539992e+02 5.3413666355e+03 0.0000000000e+00 0.0000e+00 -1.0000e+00
</event>
<event>
 6      1 +1.4834189e-01 1.04709200e+04 7.81653100e-03 6.91105100e-02
  1000022 -1    0    0    0    0 +0.0000000000e+00 +0.0000000000e+00 +4.4721471353e+01 1.0000100000e+04 1.0000000000e+04 0.0000e+00 -1.0000e+00
  1000022 -1    0    0    0    0 -0.0000000000e+00 -0.0000000000e+00 -4.4721471353e+01 1.0000100000e+04 1.0000000000e+04 0.0000e+00 -1.0000e+00
      -24  1    1    2    0    0 -8.2917071674e+03 +9.9512816021e+02 -3.1367125884e+02 8.3574786949e+03 7.9829010000e+01 0.0000e+00 -1.0000e+00
       24  1    1    2    0    0 +9.2963901019e+03 +4.6262123995e+02 +1.3454581754e+03 9.4049730308e+03 7.9829010000e+01 0.0000e+00 -1.0000e+00
       22  1    1    2    0    0 +1.1763059533e+02 -1.9465861185e+01 +3.5163987048e+01 1.2430761318e+02 0.0000000000e+00 0.0000e+00 -1.0000e+00
       22  1    1    2    0    0 -1.1223135298e+03 -1.4382835390e+03 -1.0669509036e+03 2.1134406612e+03 0.0000000000e+00 0.0000e+00 -1.0000e+00
</event>
<event>
 6      1 +1.4834189e-01 1.00075600e+04 7.81653100e-03 6.93826900e-02
  1000022 -1    0    0    0    0 +0.0000000000e+00 +0.0000000000e+00 +4.4721471353e+01 1.0000100000e+04 1.0000000000e+04 0.0000e+00 -1.0000e+00
  1000022 -1    0    0    0    0 -0.0000000000e+00 -0.0000000000e+00 -4.4721471353e+01 1.0000100000e+04 1.0000000000e+04 0.0000e+00 -1.0000e+00
      -24  1    1    2    0    0 -1.4321057563e+03 -5.0746635880e+03 -8.4543039575e+03 9.9641741005e+03 7.9829010000e+01 0.0000e+00 1.0000e+00
       24  1    1    2    0    0 +1.4432178051e+03 +5.1017141889e+03 +8.4697228075e+03 9.9926444150e+03 7.9829010000e+01 0.0000e+00 1.0000e+00
       22  1    1    2    0    0 -1.8664636802e+01 -2.0296002820e+01 -1.7995966839e+01 3.2926451675e+01 0.0000000000e+00 0.0000e+00 -1.0000e+00
       22  1    1    2    0    0 +7.5525880207e+00 -6.7545980737e+00 +2.5771168660e+00 1.0455032869e+01 0.0000000000e+00 0.0000e+00 -1.0000e+00
</event>
<event>
 6      1 +1.4834189e-01 1.00831400e+04 7.81653100e-03 6.93373000e-02
  1000022 -1    0    0    0    0 +0.0000000000e+00 +0.0000000000e+00 +4.4721471353e+01 1.0000100000e+04 1.0000000000e+04 0.0000e+00 1.0000e+00
  1000022 -1    0    0    0    0 -0.0000000000e+00 -0.0000000000e+00 -4.4721471353e+01 1.0000100000e+04 1.0000000000e+04 0.0000e+00 1.0000e+00
      -24  1    1    2    0    0 -7.8611873157e+03 +2.5300464854e+03 +3.6603375511e+03 9.0334846483e+03 7.9829010000e+01 0.0000e+00 -1.0000e+00
       24  1    1    2    0    0 +7.7990070164e+03 -2.3772048691e+03 -2.9594700036e+03 8.6741252472e+03 7.9829010000e+01 0.0000e+00 -1.0000e+00
       22  1    1    2    0    0 +8.2741825824e+02 -3.9640585077e+02 -1.0693729241e+03 1.4090127833e+03 0.0000000000e+00 0.0000e+00 -1.0000e+00
       22  1    1    2    0    0 -7.6523795885e+02 +2.4356423445e+02 +3.6850537664e+02 8.8357732123e+02 0.0000000000e+00 0.0000e+00 -1.0000e+00
</event>
<event>
 6      1 +1.4834189e-01 1.07706300e+04 7.81653100e-03 6.89419000e-02
  1000022 -1    0    0    0    0 +0.0000000000e+00 +0.0000000000e+00 +4.4721471353e+01 1.0000100000e+04 1.0000000000e+04 0.0000e+00 1.0000e+00
  1000022 -1    0    0    0    0 -0.0000000000e+00 -0.0000000000e+00 -4.4721471353e+01 1.0000100000e+04 1.0000000000e+04 0.0000e+00 1.0000e+00
      -24  1    1    2    0    0 +4.2439774646e+02 +6.5363600250e+03 +5.6781781011e+03 8.6690365695e+03 7.9829010000e+01 0.0000e+00 -1.0000e+00
       24  1    1    2    0    0 +1.0556876937e+03 -6.0533244671e+03 -6.4781544458e+03 8.9291696873e+03 7.9829010000e+01 0.0000e+00 -1.0000e+00
       22  1    1    2    0    0 +3.1212928556e+01 +4.5571043621e+02 +3.2488625615e+02 5.6053307486e+02 0.0000000000e+00 0.0000e+00 -1.0000e+00
       22  1    1    2    0    0 -1.5112983687e+03 -9.3874599417e+02 +4.7509008848e+02 1.8414606684e+03 0.0000000000e+00 0.0000e+00 1.0000e+00
</event>
<event>
 6      1 +1.4834189e-01 1.00169800e+04 7.81653100e-03 6.93770100e-02
  1000022 -1    0    0    0    0 +0.0000000000e+00 +0.0000000000e+00 +4.4721471353e+01 1.0000100000e+04 1.0000000000e+04 0.0000e+00 1.0000e+00
  1000022 -1    0    0    0    0 -0.0000000000e+00 -0.0000000000e+00 -4.4721471353e+01 1.0000100000e+04 1.0000000000e+04 0.0000e+00 1.0000e+00
      -24  1    1    2    0    0 +7.3171210703e+03 -2.3498510190e+03 +6.2897991739e+03 9.9312641133e+03 7.9829010000e+01 0.0000e+00 1.0000e+00
       24  1    1    2    0    0 -5.0187322361e+02 +2.5021557594e+02 -3.9895205350e+02 6.9283474137e+02 7.9829010000e+01 0.0000e+00 -1.0000e+00
       22  1    1    2    0    0 -6.8364924812e+03 +2.1821566467e+03 -5.9001504558e+03 9.2903827950e+03 0.0000000000e+00 0.0000e+00 1.0000e+00
       22  1    1    2    0    0 +2.1244634555e+01 -8.2521203619e+01 +9.3033353777e+00 8.5718350388e+01 0.0000000000e+00 0.0000e+00 1.0000e+00
</event>
<event>
 6      1 +1.4834189e-01 1.00095300e+04 7.81653100e-03 6.93815000e-02
  1000022 -1    0    0    0    0 +0.0000000000e+00 +0.0000000000e+00 +4.4721471353e+01 1.0000100000e+04 1.0000000000e+04 0.0000e+00 1.0000e+00
  1000022 -1    0    0    0    0 -0.0000000000e+00 -0.0000000000e+00 -4.4721471353e+01 1.0000100000e+04 1.0000000000e+04 0.0000e+00 1.0000e+00
      -24  1    1    2    0    0 +3.6950175382e+03 +7.9929102061e+03 +4.7188252868e+03 9.9906682924e+03 7.9829010000e+01 0.0000e+00 -1.0000e+00
       24  1    1    2    0    0 -3.0674412971e+03 -6.1075187823e+03 -3.6945871960e+03 7.7696414980e+03 7.9829010000e+01 0.0000e+00 -1.0000e+00
       22  1    1    2    0    0 -7.1285251219e+00 -4.1678764411e+01 -1.9657897259e+00 4.2329653938e+01 0.0000000000e+00 0.0000e+00 1.0000e+00
       22  1    1    2    0    0 -6.2044771605e+02 -1.8437126593e+03 -1.0222723011e+03 2.1975605557e+03 0.0000000000e+00 0.0000e+00 -1.0000e+00
</event>
<event>
 6      1 +1.4834189e-01 1.02503500e+04 7.81653100e-03 6.92382700e-02
  1000022 -1    0    0    0    0 +0.0000000000e+00 +0.0000000000e+00 +4.4721471353e+01 1.0000100000e+04 1.0000000000e+04 0.0000e+00 -1.0000e+00
  1000022 -1    0    0    0    0 -0.0000000000e+00 -0.0000000000e+00 -4.4721471353e+01 1.0000100000e+04 1.0000000000e+04 0.0000e+00 -1.0000e+00
      -24  1    1    2    0    0 +8.1349215785e+03 +3.2138379278e+02 -5.1757580784e+03 9.6475427435e+03 7.9829010000e+01 0.0000e+00 1.0000e+00
       24  1    1    2    0    0 -8.4852501234e+03 -5.0817889105e+02 +4.7744664773e+03 9.7498522171e+03 7.9829010000e+01 0.0000e+00 1.0000e+00
       22  1    1    2    0    0 +3.2063208162e+01 -1.5611662818e+00 -2.3350855097e+01 3.9695704951e+01 0.0000000000e+00 0.0000e+00 -1.0000e+00
       22  1    1    2    0    0 +3.1826533671e+02 +1.8835626455e+02 +4.2464245616e+02 5.6310933443e+02 0.0000000000e+00 0.0000e+00 1.0000e+00
</event>
<event>
 6      1 +1.4834189e-01 1.00084900e+04 7.81653100e-03 6.93821300e-02
  1000022 -1    0    0    0    0 +0.0000000000e+00 +0.0000000000e+00 +4.4721471353e+01 1.0000100000e+04 1.0000000000e+04 0.0000e+00 -1.0000e+00
  1000022 -1    0    0    0    0 -0.0000000000e+00 -0.0000000000e+00 -4.4721471353e+01 1.0000100000e+04 1.0000000000e+04 0.0000e+00 -1.0000e+00
      -24  1    1    2    0    0 -5.9669762186e+03 +7.8879038131e+03 -1.0138226931e+03 9.9427380978e+03 7.9829010000e+01 0.0000e+00 1.0000e+00
       24  1    1    2    0    0 +5.9978415812e+03 -7.9204009778e+03 +1.0587742411e+03 9.9917081046e+03 7.9829010000e+01 0.0000e+00 1.0000e+00
       22  1    1    2    0    0 -1.2430759042e+01 +9.9910467341e+00 -2.7610096970e+01 3.1885141366e+01 0.0000000000e+00 0.0000e+00 -1.0000e+00
       22  1    1    2    0    0 -1.8434603586e+01 +2.2506117951e+01 -1.7341450995e+01 3.3868656266e+01 0.0000000000e+00 0.0000e+00 -1.0000e+00
</event>
<event>
 6      1 +1.4834189e-01 8.63863500e+03 7.81653100e-03 7.02824600e-02
  1000022 -1    0    0    0    0 +0.0000000000e+00 +0.0000000000e+00 +4.4721471353e+01 1.0000100000e+04 1.0000000000e+04 0.0000e+00 -1.0000e+00
  1000022 -1    0    0    0    0 -0.0000000000e+00 -0.0000000000e+00 -4.4721471353e+01 1.0000100000e+04 1.0000000000e+04 0.0000e+00 -1.0000e+00
      -24  1    1    2    0    0 +2.1081311657e+03 -3.2737584771e+03 -2.8260009685e+03 4.8118983492e+03 7.9829010000e+01 0.0000e+00 0.0000e+00
       24  1    1    2    0    0 -9.3226187921e+02 -4.4620908926e+02 +2.3171909046e+03 2.5384958385e+03 7.9829010000e+01 0.0000e+00 1.0000e+00
       22  1    1    2    0    0 +2.0123098063e+03 -3.0823537255e+03 -2.6133964910e+03 4.5144364504e+03 0.0000000000e+00 0.0000e+00 -1.0000e+00
       22  1    1    2    0    0 -3.1881790927e+03 +6.8023212918e+03 +3.1222065549e+03 8.1353693619e+03 0.0000000000e+00 0.0000e+00 -1.0000e+00
</event>
<event>
 6      1 +1.4834189e-01 1.03809900e+04 7.81653100e-03 6.91622200e-02
  1000022 -1    0    0    0    0 +0.0000000000e+00 +0.0000000000e+00 +4.4721471353e+01 1.0000100000e+04 1.0000000000e+04 0.0000e+00 1.0000e+00
  1000022 -1    0    0    0    0 -0.0000000000e+00 -0.0000000000e+00 -4.4721471353e+01 1.0000100000e+04 1.0000000000e+04 0.0000e+00 1.0000e+00
      -24  1    1    2    0    0 -4.8096230094e+03 +2.0267608713e+03 +1.7532851002e+03 5.5064157522e+03 7.9829010000e+01 0.0000e+00 -1.0000e+00
       24  1    1    2    0    0 +2.2080945164e+03 -3.3466192979e+03 -2.2715220077e+03 4.6088748106e+03 7.9829010000e+01 0.0000e+00 -1.0000e+00
       22  1    1    2    0    0 +5.0801748874e+03 +5.7760881018e+02 -2.6787097205e+03 5.7721135289e+03 0.0000000000e+00 0.0000e+00 -1.0000e+00
       22  1    1    2    0    0 -2.4786463943e+03 +7.4224961638e+02 +3.1969466280e+03 4.1127959083e+03 0.0000000000e+00 0.0000e+00 -1.0000e+00
</event>
<event>
 6      1 +1.4834189e-01 1.00158500e+04 7.81653100e-03 6.93776900e-02
  1000022 -1    0    0    0    0 +0.0000000000e+00 +0.0000000000e+00 +4.4721471353e+01 1.0000100000e+04 1.0000000000e+04 0.0000e+00 1.0000e+00
  1000022 -1    0    0    0    0 -0.0000000000e+00 -0.0000000000e+00 -4.4721471353e+01 1.0000100000e+04 1.0000000000e+04 0.0000e+00 1.0000e+00
      -24  1    1    2    0    0 -2.4759724139e+02 -1.7385514147e+02 +2.8311782526e+02 4.2196964106e+02 7.9829010000e+01 0.0000e+00 -1.0000e+00
       24  1    1    2    0    0 +1.8418873254e+03 +4.4650349223e+03 -4.8643666383e+03 6.8554738158e+03 7.9829010000e+01 0.0000e+00 -1.0000e+00
       22  1    1    2    0    0 -2.5955374098e+03 -6.1548592564e+03 +6.8864713666e+03 9.5938831969e+03 0.0000000000e+00 0.0000e+00 -1.0000e+00
       22  1    1    2    0    0 +1.0012473258e+03 +1.8636794756e+03 -2.3052225535e+03 3.1288733462e+03 0.0000000000e+00 0.0000e+00 -1.0000e+00
</event>
<event>
 6      1 +1.4834189e-01 1.00174100e+04 7.81653100e-03 6.93767500e-02
  1000022 -1    0    0    0    0 +0.0000000000e+00 +0.0000000000e+00 +4.4721471353e+01 1.0000100000e+04 1.0000000000e+04 0.0000e+00 1.0000e+00
  1000022 -1    0    0    0    0 -0.0000000000e+00 -0.0000000000e+00 -4.4721471353e+01 1.0000100000e+04 1.0000000000e+04 0.0000e+00 1.0000e+00
      -24  1    1    2    0    0 -8.8183104177e+03 -2.6833969614e+03 -3.5296857498e+03 9.8705760743e+03 7.9829010000e+01 0.0000e+00 1.0000e+00
       24  1    1    2    0    0 +8.8562026847e+03 +2.7931882466e+03 +3.5750117286e+03 9.9509450859e+03 7.9829010000e+01 0.0000e+00 1.0000e+00
       22  1    1    2    0    0 -6.7019011052e+01 -1.1865371049e+02 -5.4672964068e+01 1.4683114062e+02 0.0000000000e+00 0.0000e+00 1.0000e+00
       22  1    1    2    0    0 +2.9126744095e+01 +8.8624253720e+00 +9.3469853156e+00 3.1847699125e+01 0.0000000000e+00 0.0000e+00 1.0000e+00
</event>
<event>
 6      1 +1.4834189e-01 1.00241100e+04 7.81653100e-03 6.93727200e-02
  1000022 -1    0    0    0    0 +0.0000000000e+00 +0.0000000000e+00 +4.4721471353e+01 1.0000100000e+04 1.0000000000e+04 0.0000e+00 1.0000e+00
  1000022 -1    0    0    0    0 -0.0000000000e+00 -0.0000000000e+00 -4.4721471353e+01 1.0000100000e+04 1.0000000000e+04 0.0000e+00 1.0000e+00
      -24  1    1    2    0    0 +9.4567999485e+03 -4.0048039463e+01 +3.1754191231e+03 9.9760878299e+03 7.9829010000e+01 0.0000e+00 -1.0000e+00
       24  1    1    2    0    0 -9.1336141335e+03 +7.0448801234e+01 -3.1503645338e+03 9.6622481618e+03 7.9829010000e+01 0.0000e+00 -1.0000e+00
       22  1    1    2    0    0 -2.9554955743e+02 +5.0671189367e+00 -6.3927020404e+01 3.0242665314e+02 0.0000000000e+00 0.0000e+00 1.0000e+00
       22  1    1    2    0    0 -2.7636257557e+01 -3.5467880707e+01 +3.8872431089e+01 5.9437355194e+01 0.0000000000e+00 0.0000e+00 -1.0000e+00
</event>
<event>
 6      1 +1.4834189e-01 1.00033400e+04 7.81653100e-03 6.93852400e-02
  1000022 -1    0    0    0    0 +0.0000000000e+00 +0.0000000000e+00 +4.4721471353e+01 1.0000100000e+04 1.0000000000e+04 0.0000e+00 -1.0000e+00
  1000022 -1    0    0    0    0 -0.0000000000e+00 -0.0000000000e+00 -4.4721471353e+01 1.0000100000e+04 1.0000000000e+04 0.0000e+00 -1.0000e+00
      -24  1    1    2    0    0 +9.0187162226e+03 +2.6171529931e+03 +8.9621458334e+02 9.4337853136e+03 7.9829010000e+01 0.0000e+00 -1.0000e+00
       24  1    1    2    0    0 -8.2084703848e+03 -2.4352563437e+03 -7.1467704097e+02 8.5922404215e+03 7.9829010000e+01 0.0000e+00 -1.0000e+00
       22  1    1    2    0    0 +5.4578129061e+02 +1.2486115908e+02 +5.9892220774e+01 5.6307602004e+02 0.0000000000e+00 0.0000e+00 -1.0000e+00
       22  1    1    2    0    0 -1.3560271284e+03 -3.0675780845e+02 -2.4142976315e+02 1.4110982448e+03 0.0000000000e+00 0.0000e+00 -1.0000e+00
</event>
<event>
 6      1 +1.4834189e-01 1.10333700e+04 7.81653100e-03 6.87985600e-02
  1000022 -1    0    0    0    0 +0.0000000000e+00 +0.0000000000e+00 +4.4721471353e+01 1.0000100000e+04 1.0000000000e+04 0.0000e+00 -1.0000e+00
  1000022 -1    0    0    0    0 -0.0000000000e+00 -0.0000000000e+00 -4.4721471353e+01 1.0000100000e+04 1.0000000000e+04 0.0000e+00 -1.0000e+00
      -24  1    1    2    0    0 +2.6227303235e+03 -8.5738673567e+03 -8.8303506646e+01 8.9668325500e+03 7.9829010000e+01 0.0000e+00 1.0000e+00
       24  1    1    2    0    0 -1.7213565242e+03 +5.5709571968e+03 +2.5722106111e+03 6.3734819739e+03 7.9829010000e+01 0.0000e+00 1.0000e+00
       22  1    1    2    0    0 -2.5161445048e+02 +9.2512255007e+02 +4.0649745255e+02 1.0413461208e+03 0.0000000000e+00 0.0000e+00 1.0000e+00
       22  1    1    2    0    0 -6.4975934887e+02 +2.0777876098e+03 -2.8904045570e+03 3.6185393554e+03 0.0000000000e+00 0.0000e+00 1.0000e+00
</event>
<event>
 6      1 +1.4834189e-01 1.00139600e+04 7.81653100e-03 6.93788300e-02
  1000022 -1    0    0    0    0 +0.0000000000e+00 +0.0000000000e+00 +4.4721471353e+01 1.0000100000e+04 1.0000000000e+04 0.0000e+00 1.0000e+00
  1000022 -1    0    0    0    0 -0.0000000000e+00 -0.0000000000e+00 -4.4721471353e+01 1.0000100000e+04 1.0000000000e+04 0.0000e+00 1.0000e+00
      -24  1    1    2    0    0 -3.2074704165e+03 -4.6319256264e+03 -8.6827453616e+02 5.7011292586e+03 7.9829010000e+01 0.0000e+00 1.0000e+00
       24  1    1    2    0    0 +5.4505910727e+03 +8.2073469789e+03 +1.6276029724e+03 9.9862381096e+03 7.9829010000e+01 0.0000e+00 1.0000e+00
       22  1    1    2    0    0 -2.2420650737e+03 -3.4841842786e+03 -7.8735201443e+02 4.2173829653e+03 0.0000000000e+00 0.0000e+00 -1.0000e+00
       22  1    1    2    0    0 -1.0555824815e+00 -9.1237073907e+01 +2.8023578178e+01 9.5449666544e+01 0.0000000000e+00 0.0000e+00 -1.0000e+00
</event>
<event>
 6      1 +1.4834189e-01 1.00350200e+04 7.81653100e-03 6.93661500e-02
  1000022 -1    0    0    0    0 +0.0000000000e+00 +0.0000000000e+00 +4.4721471353e+01 1.0000100000e+04 1.0000000000e+04 0.0000e+00 1.0000e+00
  1000022 -1    0    0    0    0 -0.0000000000e+00 -0.0000000000e+00 -4.4721471353e+01 1.0000100000e+04 1.0000000000e+04 0.0000e+00 1.0000e+00
      -24  1    1    2    0    0 +9.2437473413e+03 -2.5073858795e+03 +2.5728486204e+03 9.9176494974e+03 7.9829010000e+01 0.0000e+00 -1.0000e+00
       24  1    1    2    0    0 -8.6302415886e+03 +2.2257806458e+03 -2.2794892105e+03 9.1998702758e+03 7.9829010000e+01 0.0000e+00 -1.0000e+00
       22  1    1    2    0    0 +6.7297220151e+01 +9.6111451681e+01 +2.9568574414e+00 1.1736724411e+02 0.0000000000e+00 0.0000e+00 -1.0000e+00
       22  1    1    2    0    0 -6.8080297289e+02 +1.8549378208e+02 -2.9631626735e+02 7.6531298263e+02 0.0000000000e+00 0.0000e+00 1.0000e+00
</event>
<event>
 6      1 +1.4834189e-01 1.02701800e+04 7.81653100e-03 6.92266500e-02
  1000022 -1    0    0    0    0 +0.0000000000e+00 +0.0000000000e+00 +4.4721471353e+01 1.0000100000e+04 1.0000000000e+04 0.0000e+00 -1.0000e+00
  1000022 -1    0    0    0    0 -0.0000000000e+00 -0.0000000000e+00 -4.4721471353e+01 1.0000100000e+04 1.0000000000e+04 0.0000e+00 -1.0000e+00
      -24  1    1    2    0    0 +7.1790575771e+01 +5.3238822590e+03 +7.7440407612e+03 9.3981602549e+03 7.9829010000e+01 0.0000e+00 -1.0000e+00
       24  1    1    2    0    0 +3.1384922672e+02 -6.0627517842e+03 -7.5588605724e+03 9.6952672143e+03 7.9829010000e+01 0.0000e+00 -1.0000e+00
       22  1    1    2    0    0 -4.0061124916e+02 +7.5780851243e+02 -1.6018469751e+02 8.7202193309e+02 0.0000000000e+00 0.0000e+00 -1.0000e+00
       22  1    1    2    0    0 +1.4971446675e+01 -1.8938987304e+01 -2.4995491290e+01 3.4750597700e+01 0.0000000000e+00 0.0000e+00 1.0000e+00
</event>
<event>
 6      1 +1.4834189e-01 1.00610900e+04 7.81653100e-03 6.93505000e-02
  1000022 -1    0    0    0    0 +0.0000000000e+00 +0.0000000000e+00 +4.4721471353e+01 1.0000100000e+04 1.0000000000e+04 0.0000e+00 1.0000e+00
  1000022 -1    0    0    0    0 -0.0000000000e+00 -0.0000000000e+00 -4.4721471353e+01 1.0000100000e+04 1.0000000000e+04 0.0000e+00 1.0000e+00
      -24  1    1    2    0    0 +4.0548217205e+03 -7.7844798084e+03 -4.6028671407e+03 9.9112291699e+03 7.9829010000e+01 0.0000e+00 -1.0000e+00
       24  1    1    2    0    0 -4.0639702657e+03 +6.9871477542e+03 +3.8318316270e+03 8.9456913846e+03 7.9829010000e+01 0.0000e+00 -1.0000e+00
       22  1    1    2    0    0 -1.3925674780e+01 +8.1171527886e+02 +7.6488306762e+02 1.1154020466e+03 0.0000000000e+00 0.0000e+00 -1.0000e+00
       22  1    1    2    0    0 +2.3074219929e+01 -1.4383224689e+01 +6.1524461719e+00 2.7877398940e+01 0.0000000000e+00 0.0000e+00 1.0000e+00
</event>
<event>
 6      1 +1.4834189e-01 1.00447200e+04 7.81653100e-03 6.93603200e-02
  1000022 -1    0    0    0    0 +0.0000000000e+00 +0.0000000000e+00 +4.4721471353e+01 1.0000100000e+04 1.0000000000e+04 0.0000e+00 1.0000e+00
  1000022 -1    0    0    0    0 -0.0000000000e+00 -0.0000000000e+00 -4.4721471353e+01 1.0000100000e+04 1.0000000000e+04 0.0000e+00 1.0000e+00
      -24  1    1    2    0    0 -6.4863189889e+01 +3.2647199747e+02 +1.0509089026e+01 3.4245336956e+02 7.9829010000e+01 0.0000e+00 0.0000e+00
       24  1    1    2    0    0 +2.3124208726e+02 -1.8477801497e+02 -1.0385441567e+02 3.2368847404e+02 7.9829010000e+01 0.0000e+00 1.0000e+00
       22  1    1    2    0    0 +1.9630551054e+03 -9.5042551302e+03 +5.6042734649e+02 9.7210354252e+03 0.0000000000e+00 0.0000e+00 -1.0000e+00
       22  1    1    2    0    0 -2.1294340027e+03 +9.3625611477e+03 -4.6708201984e+02 9.6130227312e+03 0.0000000000e+00 0.0000e+00 -1.0000e+00
</event>
<event>
 6      1 +1.4834189e-01 1.00242800e+04 7.81653100e-03 6.93726100e-02
  1000022 -1    0    0    0    0 +0.0000000000e+00 +0.0000000000e+00 +4.4721471353e+01 1.0000100000e+04 1.0000000000e+04 0.0000e+00 1.0000e+00
  1000022 -1    0    0    0    0 -0.0000000000e+00 -0.0000000000e+00 -4.4721471353e+01 1.0000100000e+04 1.0000000000e+04 0.0000e+00 1.0000e+00
      -24  1    1    2    0    0 -9.2364231628e+03 +3.7469475728e+03 -4.0182688014e+02 9.9759193295e+03 7.9829010000e+01 0.0000e+00 1.0000e+00
       24  1    1    2    0    0 +1.1722527877e+02 -1.1026753707e+02 -5.1512640447e+01 1.8688744922e+02 7.9829010000e+01 0.0000e+00 0.0000e+00
       22  1    1    2    0    0 +9.0910995932e+03 -3.6443238532e+03 +4.3719438053e+02 9.8040974641e+03 0.0000000000e+00 0.0000e+00 1.0000e+00
       22  1    1    2    0    0 +2.8098290894e+01 +7.6438174373e+00 +1.6145140062e+01 3.3295757144e+01 0.0000000000e+00 0.0000e+00 -1.0000e+00
</event>
<event>
 6      1 +1.4834189e-01 1.00013700e+04 7.81653100e-03 6.93864300e-02
  1000022 -1    0    0    0    0 +0.0000000000e+00 +0.0000000000e+00 +4.4721471353e+01 1.0000100000e+04 1.0000000000e+04 0.0000e+00 -1.0000e+00
  1000022 -1    0    0    0    0 -0.0000000000e+00 -0.0000000000e+00 -4.4721471353e+01 1.0000100000e+04 1.0000000000e+04 0.0000e+00 -1.0000e+00
      -24  1    1    2    0    0 +8.0242146245e+03 +1.5873463182e+03 -3.3332102756e+02 8.1868897789e+03 7.9829010000e+01 0.0000e+00 -1.0000e+00
       24  1    1    2    0    0 -9.6571275964e+03 -1.8787363978e+03 +3.8156411804e+02 9.8458990302e+03 7.9829010000e+01 0.0000e+00 -1.0000e+00
       22  1    1    2    0    0 +1.7873358114e+03 +2.9600408903e+02 -3.0851226361e+01 1.8119435757e+03 0.0000000000e+00 0.0000e+00 1.0000e+00
       22  1    1    2    0    0 -1.5442283946e+02 -4.6140094547e+00 -1.7391864113e+01 1.5546761517e+02 0.0000000000e+00 0.0000e+00 1.0000e+00
</event>
<event>
 6      1 +1.4834189e-01 1.00003600e+04 7.81653100e-03 6.93870400e-02
  1000022 -1    0    0    0    0 +0.0000000000e+00 +0.0000000000e+00 +4.4721471353e+01 1.0000100000e+04 1.0000000000e+04 0.0000e+00 -1.0000e+00
  1000022 -1    0    0    0    0 -0.0000000000e+00 -0.0000000000e+00 -4.4721471353e+01 1.0000100000e+04 1.0000000000e+04 0.0000e+00 -1.0000e+00
      -24  1    1    2    0    0 -4.8263527550e+03 -7.2462726458e+03 +4.4355610836e+03 9.7715261331e+03 7.9829010000e+01 0.0000e+00 -1.0000e+00
       24  1    1    2    0    0 +4.9265622445e+03 +7.4069332124e+03 -4.5101989769e+03 9.9740634971e+03 7.9829010000e+01 0.0000e+00 -1.0000e+00
       22  1    1    2    0    0 +9.6358635975e+00 +1.9652189364e+01 -1.3609469003e+01 2.5773553512e+01 0.0000000000e+00 0.0000e+00 1.0000e+00
       22  1    1    2    0    0 -1.0984535306e+02 -1.8031275594e+02 +8.8247362262e+01 2.2883681629e+02 0.0000000000e+00 0.0000e+00 -1.0000e+00
</event>
<event>
 6      1 +1.4834189e-01 1.01023300e+04 7.81653100e-03 6.93258300e-02
  1000022 -1    0    0    0    0 +0.0000000000e+00 +0.0000000000e+00 +4.4721471353e+01 1.0000100000e+04 1.0000000000e+04 0.0000e+00 1.0000e+00
  1000022 -1    0    0    0    0 -0.0000000000e+00 -0.0000000000e+00 -4.4721471353e+01 1.0000100000e+04 1.0000000000e+04 0.0000e+00 1.0000e+00
      -24  1    1    2    0    0 -1.0786876405e+03 -5.4783082328e+03 +2.7459474208e+03 6.2227026305e+03 7.9829010000e+01 0.0000e+00 1.0000e+00
       24  1    1    2    0    0 +3.2101146142e+03 +7.8804499852e+03 -4.9204434977e+03 9.8297235307e+03 7.9829010000e+01 0.0000e+00 1.0000e+00
       22  1    1    2    0    0 -2.1097939429e+03 -2.4554615485e+03 +2.1379910987e+03 3.8796298580e+03 0.0000000000e+00 0.0000e+00 1.0000e+00
       22  1    1    2    0    0 -2.1633030849e+01 +5.3319796033e+01 +3.6504978260e+01 6.8143980736e+01 0.0000000000e+00 0.0000e+00 -1.0000e+00
</event>
<event>
 6      1 +1.4834189e-01 1.00001100e+04 7.81653100e-03 6.93871900e-02
  1000022 -1    0    0    0    0 +0.0000000000e+00 +0.0000000000e+00 +4.4721471353e+01 1.0000100000e+04 1.0000000000e+04 0.0000e+00 -1.0000e+00
  1000022 -1    0    0    0    0 -0.0000000000e+00 -0.0000000000e+00 -4.4721471353e+01 1.0000100000e+04 1.0000000000e+04 0.0000e+00 -1.0000e+00
      -24  1    1    2    0    0 +5.4602727271e+03 +2.1063458575e+03 +8.0869988803e+03 9.9828450197e+03 7.9829010000e+01 0.0000e+00 -1.0000e+00
       24  1    1    2    0    0 -5.4496844136e+03 -2.1014460868e+03 -8.0583910565e+03 9.9528475802e+03 7.9829010000e+01 0.0000e+00 -1.0000e+00
       22  1    1    2    0    0 -2.1962889523e+01 -9.2074392871e+00 -4.0827954656e+01 4.7265921506e+01 0.0000000000e+00 0.0000e+00 -1.0000e+00
       22  1    1    2    0    0 +1.1374576072e+01 +4.3076685427e+00 +1.2220130791e+01 1.7241478639e+01 0.0000000000e+00 0.0000e+00 -1.0000e+00
</event>
<event>
 6      1 +1.4834189e-01 1.00065000e+04 7.81653100e-03 6.93833300e-02
  1000022 -1    0    0    0    0 +0.0000000000e+00 +0.0000000000e+00 +4.4721471353e+01 1.0000100000e+04 1.0000000000e+04 0.0000e+00 -1.0000e+00
  1000022 -1    0    0    0    0 -0.0000000000e+00 -0.0000000000e+00 -4.4721471353e+01 1.0000100000e+04 1.0000000000e+04 0.0000e+00 -1.0000e+00
      -24  1    1    2    0    0 -5.0819337672e+03 +3.9288483792e+03 +7.4880925496e+03 9.8660936091e+03 7.9829010000e+01 0.0000e+00 1.0000e+00
       24  1    1    2    0    0 +4.6868842307e+03 -3.4525877760e+03 -6.8919769948e+03 9.0218050140e+03 7.9829010000e+01 0.0000e+00 1.0000e+00
       22  1    1    2    0    0 -6.0976354855e+01 +4.9128208260e+01 +1.0075621658e+02 1.2760686454e+02 0.0000000000e+00 0.0000e+00 -1.0000e+00
       22  1    1    2    0    0 +4.5602589135e+02 -5.2538881149e+02 -6.9687177140e+02 9.8469451232e+02 0.0000000000e+00 0.0000e+00 1.0000e+00
</event>
<event>
 6      1 +1.4834189e-01 1.00295600e+04 7.81653100e-03 6.93694300e-02
  1000022 -1    0    0    0    0 +0.0000000000e+00 +0.0000000000e+00 +4.4721471353e+01 1.0000100000e+04 1.0000000000e+04 0.0000e+00 1.0000e+00
  1000022 -1    0    0    0    0 -0.0000000000e+00 -0.0000000000e+00 -4.4721471353e+01 1.0000100000e+04 1.0000000000e+04 0.0000e+00 1.0000e+00
      -24  1    1    2    0    0 -7.6815615765e+03 +2.0221877929e+03 -5.2614529914e+03 9.5281106193e+03 7.9829010000e+01 0.0000e+00 1.0000e+00
       24  1    1    2    0    0 +8.0557836893e+03 -2.3265293811e+03 +5.3943351060e+03 9.9706375782e+03 7.9829010000e+01 0.0000e+00 1.0000e+00
       22  1    1    2    0    0 -3.6346171999e+02 +3.0008510842e+02 -1.2560764258e+02 4.8778353198e+02 0.0000000000e+00 0.0000e+00 1.0000e+00
       22  1    1    2    0    0 -1.0760392837e+01 +4.2564797974e+00 -7.2744719934e+00 1.3668270448e+01 0.0000000000e+00 0.0000e+00 1.0000e+00
</event>
<event>
 6      1 +1.4834189e-01 1.01567200e+04 7.81653100e-03 6.92934900e-02
  1000022 -1    0    0    0    0 +0.0000000000e+00 +0.0000000000e+00 +4.4721471353e+01 1.0000100000e+04 1.0000000000e+04 0.0000e+00 1.0000e+00
  1000022 -1    0    0    0    0 -0.0000000000e+00 -0.0000000000e+00 -4.4721471353e+01 1.0000100000e+04 1.0000000000e+04 0.0000e+00 1.0000e+00
      -24  1    1    2    0    0 -7.4102760218e+03 +8.8476566827e+02 -1.8041098306e+02 7.4655155080e+03 7.9829010000e+01 0.0000e+00 -1.0000e+00
       24  1    1    2    0    0 +1.2504073394e+03 +4.7924704067e+02 +6.3419000253e+02 1.4838348529e+03 7.9829010000e+01 0.0000e+00 -1.0000e+00
       22  1    1    2    0    0 -2.3758561770e+03 +8.8250996676e+01 +4.7431316485e+01 2.3779677336e+03 0.0000000000e+00 0.0000e+00 -1.0000e+00
       22  1    1    2    0    0 +8.5357248594e+03 -1.4522637056e+03 -5.0121033595e+02 8.6728819055e+03 0.0000000000e+00 0.0000e+00 -1.0000e+00
</event>
<event>
 6      1 +1.4834189e-01 1.00221500e+04 7.81653100e-03 6.93739000e-02
  1000022 -1    0    0    0    0 +0.0000000000e+00 +0.0000000000e+00 +4.4721471353e+01 1.0000100000e+04 1.0000000000e+04 0.0000e+00 1.0000e+00
  1000022 -1    0    0    0    0 -0.0000000000e+00 -0.0000000000e+00 -4.4721471353e+01 1.0000100000e+04 1.0000000000e+04 0.0000e+00 1.0000e+00
      -24  1    1    2    0    0 -2.7326340108e+03 -9.2824656325e+03 +4.6698334259e+02 9.6879256278e+03 7.9829010000e+01 0.0000e+00 -1.0000e+00
       24  1    1    2    0    0 +2.5438400312e+03 +9.2163725666e+03 -3.7345298480e+02 9.5686198166e+03 7.9829010000e+01 0.0000e+00 -1.0000e+00
       22  1    1    2    0    0 +3.6103503458e+01 -3.1343574443e+02 -1.1026216458e+02 3.3422024742e+02 0.0000000000e+00 0.0000e+00 1.0000e+00
       22  1    1    2    0    0 +1.5269047620e+02 +3.7952881034e+02 +1.6731806776e+01 4.0943430824e+02 0.0000000000e+00 0.0000e+00 1.0000e+00
</event>
<event>
 6      1 +1.4834189e-01 1.01994900e+04 7.81653100e-03 6.92681900e-02
  1000022 -1    0    0    0    0 +0.0000000000e+00 +0.0000000000e+00 +4.4721471353e+01 1.0000100000e+04 1.0000000000e+04 0.0000e+00 1.0000e+00
  1000022 -1    0    0    0    0 -0.0000000000e+00 -0.0000000000e+00 -4.4721471353e+01 1.0000100000e+04 1.0000000000e+04 0.0000e+00 1.0000e+00
      -24  1    1    2    0    0 -8.6916618570e+02 +1.7049213073e+02 -2.3997239398e+02 9.2112802895e+02 7.9829010000e+01 0.0000e+00 1.0000e+00
       24  1    1    2    0    0 +3.0023479742e+03 -4.6710389861e+03 +7.7769117529e+03 9.5561199056e+03 7.9829010000e+01 0.0000e+00 -1.0000e+00
       22  1    1    2    0    0 +5.9543987909e+01 -1.2753496963e+02 +2.0003591213e+02 2.4459153934e+02 0.0000000000e+00 0.0000e+00 1.0000e+00
       22  1    1    2    0    0 -2.1927257764e+03 +4.6280818250e+03 -7.7369752710e+03 9.2783605261e+03 0.0000000000e+00 0.0000e+00 -1.0000e+00
</event>
<event>
 6      1 +1.4834189e-01 1.00316100e+04 7.81653100e-03 6.93682000e-02
  1000022 -1    0    0    0    0 +0.0000000000e+00 +0.0000000000e+00 +4.4721471353e+01 1.0000100000e+04 1.0000000000e+04 0.0000e+00 1.0000e+00
  1000022 -1    0    0    0    0 -0.0000000000e+00 -0.0000000000e+00 -4.4721471353e+01 1.0000100000e+04 1.0000000000e+04 0.0000e+00 1.0000e+00
      -24  1    1    2    0    0 +4.4645561579e+01 +4.3803685715e+01 -1.6731287041e+02 1.9564829796e+02 7.9829010000e+01 0.0000e+00 -1.0000e+00
       24  1    1    2    0    0 -2.9403210045e+03 -8.1615935719e+03 +4.8028800110e+03 9.9162052375e+03 7.9829010000e+01 0.0000e+00 1.0000e+00
       22  1    1    2    0    0 +2.9164514882e+03 +8.1496289755e+03 -4.6716102319e+03 9.8359587169e+03 0.0000000000e+00 0.0000e+00 1.0000e+00
       22  1    1    2    0    0 -2.0776045265e+01 -3.1839089303e+01 +3.6043091382e+01 5.2387747622e+01 0.0000000000e+00 0.0000e+00 1.0000e+00
</event>
<event>
 6      1 +1.4834189e-01 1.00039100e+04 7.81653100e-03 6.93848900e-02
  1000022 -1    0    0    0    0 +0.0000000000e+00 +0.0000000000e+00 +4.4721471353e+01 1.0000100000e+04 1.0000000000e+04 0.0000e+00 1.0000e+00
  1000022 -1    0    0    0    0 -0.0000000000e+00 -0.0000000000e+00 -4.4721471353e+01 1.0000100000e+04 1.0000000000e+04 0.0000e+00 1.0000e+00
      -24  1    1    2    0    0 +1.4994303830e+02 +5.5363765438e+03 +4.1474934440e+02 5.5544880808e+03 7.9829010000e+01 0.0000e+00 -1.0000e+00
       24  1    1    2    0    0 -5.2316023810e+02 -8.4493287391e+03 -5.1495532842e+02 8.4815331419e+03 7.9829010000e+01 0.0000e+00 -1.0000e+00
       22  1    1    2    0    0 +4.5763899999e+02 +4.4199501841e+03 +2.2795051349e+02 4.4494218187e+03 0.0000000000e+00 0.0000e+00 -1.0000e+00
       22  1    1    2    0    0 -8.4421800195e+01 -1.5069979888e+03 -1.2774452947e+02 1.5147569586e+03 0.0000000000e+00 0.0000e+00 -1.0000e+00
</event>
<event>
 6      1 +1.4834189e-01 1.00207700e+04 7.81653100e-03 6.93747300e-02
  1000022 -1    0    0    0    0 +0.0000000000e+00 +0.0000000000e+00 +4.4721471353e+01 1.0000100000e+04 1.0000000000e+04 0.0000e+00 1.0000e+00
  1000022 -1    0    0    0    0 -0.0000000000e+00 -0.0000000000e+00 -4.4721471353e+01 1.0000100000e+04 1.0000000000e+04 0.0000e+00 1.0000e+00
      -24  1    1    2    0    0 -7.2970702131e+03 -1.5970109050e+03 +5.2662466237e+03 9.1398798514e+03 7.9829010000e+01 0.0000e+00 1.0000e+00
       24  1    1    2    0    0 +7.9947110219e+03 +1.8218512414e+03 -5.2021204992e+03 9.7109719714e+03 7.9829010000e+01 0.0000e+00 1.0000e+00
       22  1    1    2    0    0 +1.5568806973e+02 -6.1815732215e+01 -2.0978726166e+02 2.6845978276e+02 0.0000000000e+00 0.0000e+00 1.0000e+00
       22  1    1    2    0    0 -8.5332887855e+02 -1.6302460417e+02 +1.4566113714e+02 8.8088839441e+02 0.0000000000e+00 0.0000e+00 -1.0000e+00
</event>
<event>
 6      1 +1.4834189e-01 1.05054200e+04 7.81653100e-03 6.90908200e-02
  1000022 -1    0    0    0    0 +0.0000000000e+00 +0.0000000000e+00 +4.4721471353e+01 1.0000100000e+04 1.0000000000e+04 0.0000e+00 -1.0000e+00
  1000022 -1    0    0    0    0 -0.0000000000e+00 -0.0000000000e+00 -4.4721471353e+01 1.0000100000e+04 1.0000000000e+04 0.0000e+00 -1.0000e+00
      -24  1    1    2    0    0 +2.6473715099e+03 -4.5650412409e+03 -7.8928050356e+03 9.4947839072e+03 7.9829010000e+01 0.0000e+00 1.0000e+00
       24  1    1    2    0    0 +2.3295466674e+02 +3.9542091626e+03 +4.5311637106e+03 6.0189579847e+03 7.9829010000e+01 0.0000e+00 1.0000e+00
       22  1    1    2    0    0 -2.8768549782e+03 +5.7414767699e+02 +3.3300202207e+03 4.4379020709e+03 0.0000000000e+00 0.0000e+00 1.0000e+00
       22  1    1    2    0    0 -3.4711984383e+00 +3.6684401311e+01 +3.1621104289e+01 4.8556037262e+01 0.0000000000e+00 0.0000e+00 1.0000e+00
</event>
<event>
 6      1 +1.4834189e-01 1.00109100e+04 7.81653100e-03 6.93806700e-02
  1000022 -1    0    0    0    0 +0.0000000000e+00 +0.0000000000e+00 +4.4721471353e+01 1.0000100000e+04 1.0000000000e+04 0.0000e+00 -1.0000e+00
  1000022 -1    0    0    0    0 -0.0000000000e+00 -0.0000000000e+00 -4.4721471353e+01 1.0000100000e+04 1.0000000000e+04 0.0000e+00 -1.0000e+00
      -24  1    1    2    0    0 -4.0653618357e+03 -1.9404940308e+03 +2.4307464945e+03 5.1193344421e+03 7.9829010000e+01 0.0000e+00 1.0000e+00
       24  1    1    2    0    0 +8.1938828600e+03 +3.2638078317e+03 -4.6890621876e+03 9.9892859983e+03 7.9829010000e+01 0.0000e+00 1.0000e+00
       22  1    1    2    0    0 -4.1139315638e+03 -1.3065338238e+03 +2.2514091727e+03 4.8682960887e+03 0.0000000000e+00 0.0000e+00 1.0000e+00
       22  1    1    2    0    0 -1.4589460616e+01 -1.6779977110e+01 +6.9065203870e+00 2.3283470892e+01 0.0000000000e+00 0.0000e+00 1.0000e+00
</event>
<event>
 6      1 +1.4834189e-01 1.01522800e+04 7.81653100e-03 6.92961200e-02
  1000022 -1    0    0    0    0 +0.0000000000e+00 +0.0000000000e+00 +4.4721471353e+01 1.0000100000e+04 1.0000000000e+04 0.0000e+00 -1.0000e+00
  1000022 -1    0    0    0    0 -0.0000000000e+00 -0.0000000000e+00 -4.4721471353e+01 1.0000100000e+04 1.0000000000e+04 0.0000e+00 -1.0000e+00
      -24  1    1    2    0    0 -6.8359997161e+03 +5.1803634151e+03 -1.0070733612e+03 8.6364128350e+03 7.9829010000e+01 0.0000e+00 -1.0000e+00
       24  1    1    2    0    0 +7.5620795811e+03 -6.2788272347e+03 +6.0530749048e+02 9.8479179964e+03 7.9829010000e+01 0.0000e+00 -1.0000e+00
       22  1    1    2    0    0 -1.3410376846e+02 +5.6914093975e+02 +4.2264407787e+02 7.2147990032e+02 0.0000000000e+00 0.0000e+00 -1.0000e+00
       22  1    1    2    0    0 -5.9197609654e+02 +5.2932287988e+02 -2.0878207127e+01 7.9438926829e+02 0.0000000000e+00 0.0000e+00 -1.0000e+00
</event>
<event>
 6      1 +1.4834189e-01 1.00004200e+04 7.81653100e-03 6.93870000e-02
  1000022 -1    0    0    0    0 +0.0000000000e+00 +0.0000000000e+00 +4.4721471353e+01 1.0000100000e+04 1.0000000000e+04 0.0000e+00 -1.0000e+00
  1000022 -1    0    0    0    0 -0.0000000000e+00 -0.0000000000e+00 -4.4721471353e+01 1.0000100000e+04 1.0000000000e+04 0.0000e+00 -1.0000e+00
      -24  1    1    2    0    0 -6.3888649765e+03 -7.3172301501e+03 +1.3524734998e+03 9.8079054846e+03 7.9829010000e+01 0.0000e+00 1.0000e+00
       24  1    1    2    0    0 +6.4894620684e+03 +7.4046638947e+03 -1.3683425341e+03 9.9408701477e+03 7.9829010000e+01 0.0000e+00 1.0000e+00
       22  1    1    2    0    0 -1.3745602551e+02 -1.3289561991e+02 +2.2540399155e+01 1.9251876359e+02 0.0000000000e+00 0.0000e+00 1.0000e+00
       22  1    1    2    0    0 +3.6858933649e+01 +4.5461875224e+01 -6.6713648412e+00 5.8905604126e+01 0.0000000000e+00 0.0000e+00 1.0000e+00
</event>
<event>
 6      1 +1.4834189e-01 1.00631500e+04 7.81653100e-03 6.93492600e-02
  1000022 -1    0    0    0    0 +0.0000000000e+00 +0.0000000000e+00 +4.4721471353e+01 1.0000100000e+04 1.0000000000e+04 0.0000e+00 -1.0000e+00
  1000022 -1    0    0    0    0 -0.0000000000e+00 -0.0000000000e+00 -4.4721471353e+01 1.0000100000e+04 1.0000000000e+04 0.0000e+00 -1.0000e+00
      -24  1    1    2    0    0 +5.2409947840e+03 +7.7047622769e+03 +3.4506709631e+03 9.9370463839e+03 7.9829010000e+01 0.0000e+00 -1.0000e+00
       24  1    1    2    0    0 -3.0289231158e+03 -4.5871703365e+03 -2.2386394871e+03 5.9358559923e+03 7.9829010000e+01 0.0000e+00 -1.0000e+00
       22  1    1    2    0    0 -2.3852683078e+02 -1.4144303186e+02 +1.3779373076e+02 3.0965834802e+02 0.0000000000e+00 0.0000e+00 -1.0000e+00
       22  1    1    2    0    0 -1.9735448374e+03 -2.9761489086e+03 -1.3498252068e+03 3.8176392758e+03 0.0000000000e+00 0.0000e+00 -1.0000e+00
</event>
<event>
 6      1 +1.4834189e-01 1.00001700e+04 7.81653100e-03 6.93871500e-02
  1000022 -1    0    0    0    0 +0.0000000000e+00 +0.0000000000e+00 +4.4721471353e+01 1.0000100000e+04 1.0000000000e+04 0.0000e+00 1.0000e+00
  1000022 -1    0    0    0    0 -0.0000000000e+00 -0.0000000000e+00 -4.4721471353e+01 1.0000100000e+04 1.0000000000e+04 0.0000e+00 1.0000e+00
      -24  1    1    2    0    0 -6.6419891152e+03 -6.2993395948e+03 -3.6817049419e+03 9.8670675830e+03 7.9829010000e+01 0.0000e+00 1.0000e+00
       24  1    1    2    0    0 +6.6342480844e+03 +6.2923373018e+03 +3.6700722113e+03 9.8530482122e+03 7.9829010000e+01 0.0000e+00 1.0000e+00
       22  1    1    2    0    0 +9.6242011086e+01 +9.3273647197e+01 +6.0672465958e+01 1.4711779663e+02 0.0000000000e+00 0.0000e+00 1.0000e+00
       22  1    1    2    0    0 -8.8500980277e+01 -8.6271354115e+01 -4.9039735353e+01 1.3296640814e+02 0.0000000000e+00 0.0000e+00 -1.0000e+00
</event>
<event>
 6      1 +1.4834189e-01 1.00360800e+04 7.81653100e-03 6.93655200e-02
  1000022 -1    0    0    0    0 +0.0000000000e+00 +0.0000000000e+00 +4.4721471353e+01 1.0000100000e+04 1.0000000000e+04 0.0000e+00 1.0000e+00
  1000022 -1    0    0    0    0 -0.0000000000e+00 -0.0000000000e+00 -4.4721471353e+01 1.0000100000e+04 1.0000000000e+04 0.0000e+00 1.0000e+00
      -24  1    1    2    0    0 +7.5189844202e+03 +6.3438494165e+02 +6.3368715839e+03 9.8539273951e+03 7.9829010000e+01 0.0000e+00 1.0000e+00
       24  1    1    2    0    0 -7.6461897749e+02 -5.7650702199e+00 -8.3996789511e+02 1.1386808826e+03 7.9829010000e+01 0.0000e+00 0.0000e+00
       22  1    1    2    0    0 +1.6929442051e+02 +2.3217388462e+01 -6.3076092721e+01 1.8214895392e+02 0.0000000000e+00 0.0000e+00 1.0000e+00
       22  1    1    2    0    0 -6.9236598632e+03 -6.5183725989e+02 -5.4338275961e+03 8.8254427684e+03 0.0000000000e+00 0.0000e+00 1.0000e+00
</event>
<event>
 6      1 +1.4834189e-01 1.00446200e+04 7.81653100e-03 6.93603800e-02
  1000022 -1    0    0    0    0 +0.0000000000e+00 +0.0000000000e+00 +4.4721471353e+01 1.0000100000e+04 1.0000000000e+04 0.0000e+00 1.0000e+00
  1000022 -1    0    0    0    0 -0.0000000000e+00 -0.0000000000e+00 -4.4721471353e+01 1.0000100000e+04 1.0000000000e+04 0.0000e+00 1.0000e+00
      -24  1    1    2    0    0 -9.6862456842e+03 -2.1783522764e+03 -7.3386107618e+02 9.9555762688e+03 7.9829010000e+01 0.0000e+00 1.0000e+00
       24  1    1    2    0    0 +1.6433433091e+03 -7.2266623253e+01 +1.4819672199e+02 1.6535218884e+03 7.9829010000e+01 0.0000e+00 -1.0000e+00
       22  1    1    2    0    0 +7.9617076946e+03 +2.2421701481e+03 +5.2250912066e+02 8.2878906948e+03 0.0000000000e+00 0.0000e+00 1.0000e+00
       22  1    1    2    0    0 +8.1194680481e+01 +8.4487515272e+00 +6.3155233540e+01 1.0321114796e+02 0.0000000000e+00 0.0000e+00 -1.0000e+00
</event>
<event>
 6      1 +1.4834189e-01 1.01052300e+04 7.81653100e-03 6.93241000e-02
  1000022 -1    0    0    0    0 +0.0000000000e+00 +0.0000000000e+00 +4.4721471353e+01 1.0000100000e+04 1.0000000000e+04 0.0000e+00 -1.0000e+00
  1000022 -1    0    0    0    0 -0.0000000000e+00 -0.0000000000e+00 -4.4721471353e+01 1.0000100000e+04 1.0000000000e+04 0.0000e+00 -1.0000e+00
      -24  1    1    2    0    0 -5.7508380303e+03 -3.2710143723e+03 -4.9375199436e+03 8.2557343065e+03 7.9829010000e+01 0.0000e+00 1.0000e+00
       24  1    1    2    0    0 +6.4847265559e+03 +3.8809421040e+03 +6.3867553035e+03 9.8949687264e+03 7.9829010000e+01 0.0000e+00 1.0000e+00
       22  1    1    2    0    0 -6.3757535956e+01 -3.4582212925e+02 -1.9228103387e+02 4.0078668198e+02 0.0000000000e+00 0.0000e+00 1.0000e+00
       22  1    1    2    0    0 -6.7013098963e+02 -2.6410560243e+02 -1.2569543260e+03 1.4487102851e+03 0.0000000000e+00 0.0000e+00 1.0000e+00
</event>
<event>
 6      1 +1.4834189e-01 1.00509700e+04 7.81653100e-03 6.93565700e-02
  1000022 -1    0    0    0    0 +0.0000000000e+00 +0.0000000000e+00 +4.4721471353e+01 1.0000100000e+04 1.0000000000e+04 0.0000e+00 1.0000e+00
  1000022 -1    0    0    0    0 -0.0000000000e+00 -0.0000000000e+00 -4.4721471353e+01 1.0000100000e+04 1.0000000000e+04 0.0000e+00 1.0000e+00
      -24  1    1    2    0    0 +4.6731900121e+03 -4.7213697553e+03 -1.9102127398e+03 6.9126928644e+03 7.9829010000e+01 0.0000e+00 1.0000e+00
       24  1    1    2    0    0 -8.2300505766e+02 +6.9202907139e+02 +3.3915574309e+02 1.1303277620e+03 7.9829010000e+01 0.0000e+00 -1.0000e+00
       22  1    1    2    0    0 -6.5770811713e+03 +5.4305847617e+03 +2.2413814349e+03 8.8189023311e+03 0.0000000000e+00 0.0000e+00 1.0000e+00
       22  1    1    2    0    0 +2.7268962169e+03 -1.4012440778e+03 -6.7032443818e+02 3.1382770425e+03 0.0000000000e+00 0.0000e+00 1.0000e+00
</event>
<event>
 6      1 +1.4834189e-01 9.77190900e+03 7.81653100e-03 6.95268600e-02
  1000022 -1    0    0    0    0 +0.0000000000e+00 +0.0000000000e+00 +4.4721471353e+01 1.0000100000e+04 1.0000000000e+04 0.0000e+00 -1.0000e+00
  1000022 -1    0    0    0    0 -0.0000000000e+00 -0.0000000000e+00 -4.4721471353e+01 1.0000100000e+04 1.0000000000e+04 0.0000e+00 -1.0000e+00
      -24  1    1    2    0    0 +1.6704891336e+03 +2.7498987004e+03 +8.7591732159e+03 9.3317717988e+03 7.9829010000e+01 0.0000e+00 1.0000e+00
       24  1    1    2    0    0 -5.6651820572e+02 +4.3015654131e+01 -1.7582806573e+02 6.0006783237e+02 7.9829010000e+01 0.0000e+00 -1.0000e+00
       22  1    1    2    0    0 +4.4836105194e+02 -3.5615217568e+00 +3.5831938464e+02 5.7396262836e+02 0.0000000000e+00 0.0000e+00 1.0000e+00
       22  1    1    2    0    0 -1.5523319798e+03 -2.7893528327e+03 -8.9416645348e+03 9.4943977405e+03 0.0000000000e+00 0.0000e+00 1.0000e+00
</event>
<event>
 6      1 +1.4834189e-01 1.06772900e+04 7.81653100e-03 6.89938100e-02
  1000022 -1    0    0    0    0 +0.0000000000e+00 +0.0000000000e+00 +4.4721471353e+01 1.0000100000e+04 1.0000000000e+04 0.0000e+00 1.0000e+00
  1000022 -1    0    0    0    0 -0.0000000000e+00 -0.0000000000e+00 -4.4721471353e+01 1.0000100000e+04 1.0000000000e+04 0.0000e+00 1.0000e+00
      -24  1    1    2    0    0 +8.6790311730e+03 +2.8436237676e+03 -1.4408960475e+03 9.2463145266e+03 7.9829010000e+01 0.0000e+00 -1.0000e+00
       24  1    1    2    0    0 -7.7076579026e+03 -1.6165239810e+03 +3.0112377153e+03 8.4317889782e+03 7.9829010000e+01 0.0000e+00 -1.0000e+00
       22  1    1    2    0    0 +6.6056028290e+01 +2.9398733488e+01 -2.5271143740e+01 7.6591873655e+01 0.0000000000e+00 0.0000e+00 1.0000e+00
       22  1    1    2    0    0 -1.0374292987e+03 -1.2564985202e+03 -1.5450705240e+03 2.2455046215e+03 0.0000000000e+00 0.0000e+00 -1.0000e+00
</event>
<event>
 6      1 +1.4834189e-01 1.00069500e+04 7.81653100e-03 6.93830600e-02
  1000022 -1    0    0    0    0 +0.0000000000e+00 +0.0000000000e+00 +4.4721471353e+01 1.0000100000e+04 1.0000000000e+04 0.0000e+00 1.0000e+00
  1000022 -1    0    0    0    0 -0.0000000000e+00 -0.0000000000e+00 -4.4721471353e+01 1.0000100000e+04 1.0000000000e+04 0.0000e+00 1.0000e+00
      -24  1    1    2    0    0 +2.9905581818e+02 -8.3806573045e+03 +5.4344956771e+03 9.9932460779e+03 7.9829010000e+01 0.0000e+00 1.0000e+00
       24  1    1    2    0    0 -2.7033796788e+02 +8.3049867701e+03 -5.3874429931e+03 9.9033732911e+03 7.9829010000e+01 0.0000e+00 1.0000e+00
       22  1    1    2    0    0 -2.7169391232e+01 +1.4508636249e+01 -1.1900580587e+01 3.3019693579e+01 0.0000000000e+00 0.0000e+00 -1.0000e+00
       22  1    1    2    0    0 -1.5484590667e+00 +6.1161898159e+01 -3.5152103434e+01 7.0560937407e+01 0.0000000000e+00 0.0000e+00 -1.0000e+00
</event>
<event>
 6      1 +1.4834189e-01 1.00101700e+04 7.81653100e-03 6.93811200e-02
  1000022 -1    0    0    0    0 +0.0000000000e+00 +0.0000000000e+00 +4.4721471353e+01 1.0000100000e+04 1.0000000000e+04 0.0000e+00 1.0000e+00
  1000022 -1    0    0    0    0 -0.0000000000e+00 -0.0000000000e+00 -4.4721471353e+01 1.0000100000e+04 1.0000000000e+04 0.0000e+00 1.0000e+00
      -24  1    1    2    0    0 +1.5895522930e+03 +5.4269534715e+03 +5.1588140724e+03 7.6549484504e+03 7.9829010000e+01 0.0000e+00 -1.0000e+00
       24  1    1    2    0    0 -9.3303956757e+02 -5.1809427961e+03 -4.8493367250e+03 7.1578747149e+03 7.9829010000e+01 0.0000e+00 -1.0000e+00
       22  1    1    2    0    0 +3.9721503335e+01 +1.7590168453e+03 +1.5656809265e+03 2.3552228819e+03 0.0000000000e+00 0.0000e+00 -1.0000e+00
       22  1    1    2    0    0 -6.9623422881e+02 -2.0050275207e+03 -1.8751582739e+03 2.8321539528e+03 0.0000000000e+00 0.0000e+00 -1.0000e+00
</event>
<event>
 6      1 +1.4834189e-01 1.00168500e+04 7.81653100e-03 6.93770900e-02
  1000022 -1    0    0    0    0 +0.0000000000e+00 +0.0000000000e+00 +4.4721471353e+01 1.0000100000e+04 1.0000000000e+04 0.0000e+00 -1.0000e+00
  1000022 -1    0    0    0    0 -0.0000000000e+00 -0.0000000000e+00 -4.4721471353e+01 1.0000100000e+04 1.0000000000e+04 0.0000e+00 -1.0000e+00
      -24  1    1    2    0    0 -5.9091035445e+03 -5.9525926569e+03 +5.2803581259e+03 9.9115800278e+03 7.9829010000e+01 0.0000e+00 -1.0000e+00
       24  1    1    2    0    0 +5.8352711309e+03 +5.9591734291e+03 -5.2012911700e+03 9.8296459568e+03 7.9829010000e+01 0.0000e+00 -1.0000e+00
       22  1    1    2    0    0 +9.0013510766e+01 +9.7424261520e+01 -7.7668403910e+01 1.5370848974e+02 0.0000000000e+00 0.0000e+00 -1.0000e+00
       22  1    1    2    0    0 -1.6181097177e+01 -1.0400503377e+02 -1.3985519771e+00 1.0526552571e+02 0.0000000000e+00 0.0000e+00 -1.0000e+00
</event>
<event>
 6      1 +1.4834189e-01 1.00738000e+04 7.81653100e-03 6.93428800e-02
  1000022 -1    0    0    0    0 +0.0000000000e+00 +0.0000000000e+00 +4.4721471353e+01 1.0000100000e+04 1.0000000000e+04 0.0000e+00 -1.0000e+00
  1000022 -1    0    0    0    0 -0.0000000000e+00 -0.0000000000e+00 -4.4721471353e+01 1.0000100000e+04 1.0000000000e+04 0.0000e+00 -1.0000e+00
      -24  1    1    2    0    0 -5.1897701452e+03 +5.0977107495e+03 -6.7532684229e+03 9.9263979423e+03 7.9829010000e+01 0.0000e+00 -1.0000e+00
       24  1    1    2    0    0 +5.1674122506e+03 -4.8086649124e+03 +6.4559928104e+03 9.5661707828e+03 7.9829010000e+01 0.0000e+00 -1.0000e+00
       22  1    1    2    0    0 +1.5461860253e+02 -1.9607029754e+02 +1.7469874988e+02 3.0474600413e+02 0.0000000000e+00 0.0000e+00 1.0000e+00
       22  1    1    2    0    0 -1.3226070794e+02 -9.2975539604e+01 +1.2257686267e+02 2.0288527076e+02 0.0000000000e+00 0.0000e+00 1.0000e+00
</event>
<event>
 6      1 +1.4834189e-01 6.98906200e+03 7.81653100e-03 7.16210100e-02
  1000022 -1    0    0    0    0 +0.0000000000e+00 +0.0000000000e+00 +4.4721471353e+01 1.0000100000e+04 1.0000000000e+04 0.0000e+00 1.0000e+00
  1000022 -1    0    0    0    0 -0.0000000000e+00 -0.0000000000e+00 -4.4721471353e+01 1.0000100000e+04 1.0000000000e+04 0.0000e+00 1.0000e+00
      -24  1    1    2    0    0 +7.6179961997e+03 +2.1800255100e+02 -5.1924652590e+03 9.2222263769e+03 7.9829010000e+01 0.0000e+00 -1.0000e+00
       24  1    1    2    0    0 -2.8805383485e+03 +2.3612792768e+03 +3.4388394162e+03 5.0700227022e+03 7.9829010000e+01 0.0000e+00 -1.0000e+00
       22  1    1    2    0    0 -4.7442004086e+03 -2.5207330171e+03 +1.7250883409e+03 5.6424695165e+03 0.0000000000e+00 0.0000e+00 -1.0000e+00
       22  1    1    2    0    0 +6.7425573893e+00 -5.8548810625e+01 +2.8537501900e+01 6.5481404387e+01 0.0000000000e+00 0.0000e+00 1.0000e+00
</event>
<event>
 6      1 +1.4834189e-01 1.00106300e+04 7.81653100e-03 6.93808400e-02
  1000022 -1    0    0    0    0 +0.0000000000e+00 +0.0000000000e+00 +4.4721471353e+01 1.0000100000e+04 1.0000000000e+04 0.0000e+00 1.0000e+00
  1000022 -1    0    0    0    0 -0.0000000000e+00 -0.0000000000e+00 -4.4721471353e+01 1.0000100000e+04 1.0000000000e+04 0.0000e+00 1.0000e+00
      -24  1    1    2    0    0 -9.2602399401e+02 +7.0547878583e+02 +9.8449586525e+01 1.1710191060e+03 7.9829010000e+01 0.0000e+00 -1.0000e+00
       24  1    1    2    0    0 +8.6555551054e+03 -4.6981822679e+03 -1.5690300301e+03 9.9729523568e+03 7.9829010000e+01 0.0000e+00 -1.0000e+00
       22  1    1    2    0    0 -7.7433213184e+03 +4.0000499683e+03 +1.4762397809e+03 8.8396102109e+03 0.0000000000e+00 0.0000e+00 -1.0000e+00
       22  1    1    2    0    0 +1.3790206980e+01 -7.3464862426e+00 -5.6593373845e+00 1.6618326278e+01 0.0000000000e+00 0.0000e+00 1.0000e+00
</event>
<event>
 6      1 +1.4834189e-01 1.00291900e+04 7.81653100e-03 6.93696600e-02
  1000022 -1    0    0    0    0 +0.0000000000e+00 +0.0000000000e+00 +4.4721471353e+01 1.0000100000e+04 1.0000000000e+04 0.0000e+00 -1.0000e+00
  1000022 -1    0    0    0    0 -0.0000000000e+00 -0.0000000000e+00 -4.4721471353e+01 1.0000100000e+04 1.0000000000e+04 0.0000e+00 -1.0000e+00
      -24  1    1    2    0    0 -8.7104589438e+03 -6.1980446064e+02 -4.5933779698e+03 9.8672056037e+03 7.9829010000e+01 0.0000e+00 1.0000e+00
       24  1    1    2    0    0 +8.6844855140e+03 +5.2800644797e+02 +4.6719926020e+03 9.8758780367e+03 7.9829010000e+01 0.0000e+00 1.0000e+00
       22  1    1    2    0    0 +8.2113021603e+01 +7.0550210976e+00 +4.7508700105e+01 9.5128325042e+01 0.0000000000e+00 0.0000e+00 1.0000e+00
       22  1    1    2    0    0 -5.6139591799e+01 +8.4742991571e+01 -1.2612333227e+02 1.6198803453e+02 0.0000000000e+00 0.0000e+00 -1.0000e+00
</event>
<event>
 6      1 +1.4834189e-01 1.00070000e+04 7.81653100e-03 6.93830300e-02
  1000022 -1    0    0    0    0 +0.0000000000e+00 +0.0000000000e+00 +4.4721471353e+01 1.0000100000e+04 1.0000000000e+04 0.0000e+00 -1.0000e+00
  1000022 -1    0    0    0    0 -0.0000000000e+00 -0.0000000000e+00 -4.4721471353e+01 1.0000100000e+04 1.0000000000e+04 0.0000e+00 -1.0000e+00
      -24  1    1    2    0    0 -9.9752037275e+03 +1.8115950738e+02 -5.6591926594e+02 9.9932049643e+03 7.9829010000e+01 0.0000e+00 1.0000e+00
       24  1    1    2    0    0 +2.6284455739e+03 -2.2589365104e+01 +3.3033555162e+02 2.6504208462e+03 7.9829010000e+01 0.0000e+00 1.0000e+00
       22  1    1    2    0    0 +2.8696494875e+01 +1.3863695595e+01 -6.2973031765e+00 3.2486103198e+01 0.0000000000e+00 0.0000e+00 1.0000e+00
       22  1    1    2    0    0 +7.3180616587e+03 -1.7243383787e+02 +2.4188101749e+02 7.3240880863e+03 0.0000000000e+00 0.0000e+00 1.0000e+00
</event>
<event>
 6      1 +1.4834189e-01 1.00138700e+04 7.81653100e-03 6.93788900e-02
  1000022 -1    0    0    0    0 +0.0000000000e+00 +0.0000000000e+00 +4.4721471353e+01 1.0000100000e+04 1.0000000000e+04 0.0000e+00 -1.0000e+00
  1000022 -1    0    0    0    0 -0.0000000000e+00 -0.0000000000e+00 -4.4721471353e+01 1.0000100000e+04 1.0000000000e+04 0.0000e+00 -1.0000e+00
      -24  1    1    2    0    0 +4.6988596385e+02 +1.0554061277e+02 -2.2632059553e+01 4.8868857253e+02 7.9829010000e+01 0.0000e+00 -1.0000e+00
       24  1    1    2    0    0 -9.2789113005e+03 -2.6686367172e+03 -2.3798928840e+03 9.9443491321e+03 7.9829010000e+01 0.0000e+00 -1.0000e+00
       22  1    1    2    0    0 +8.8458479325e+03 +2.5805257275e+03 +2.4126609990e+03 9.5251809311e+03 0.0000000000e+00 0.0000e+00 -1.0000e+00
       22  1    1    2    0    0 -3.6822595797e+01 -1.7429623097e+01 -1.0136055402e+01 4.1981364218e+01 0.0000000000e+00 0.0000e+00 -1.0000e+00
</event>
<event>
 6      1 +1.4834189e-01 8.94974600e+03 7.81653100e-03 7.00638900e-02
  1000022 -1    0    0    0    0 +0.0000000000e+00 +0.0000000000e+00 +4.4721471353e+01 1.0000100000e+04 1.0000000000e+04 0.0000e+00 -1.0000e+00
  1000022 -1    0    0    0    0 -0.0000000000e+00 -0.0000000000e+00 -4.4721471353e+01 1.0000100000e+04 1.0000000000e+04 0.0000e+00 -1.0000e+00
      -24  1    1    2    0    0 +8.1563922067e+03 -3.1718196401e+02 -3.1765617044e+03 8.7592382751e+03 7.9829010000e+01 0.0000e+00 -1.0000e+00
       24  1    1    2    0    0 -1.0064248372e+03 -7.1059734257e+02 -1.5622750912e+03 1.9912095991e+03 7.9829010000e+01 0.0000e+00 -1.0000e+00
       22  1    1    2    0    0 -7.4437656843e+03 +1.0288409162e+03 +4.8407970482e+03 8.9387626244e+03 0.0000000000e+00 0.0000e+00 -1.0000e+00
       22  1    1    2    0    0 +2.9379831486e+02 -1.0616096699e+00 -1.0196025260e+02 3.1098950134e+02 0.0000000000e+00 0.0000e+00 1.0000e+00
</event>
<event>
 6      1 +1.4834189e-01 1.00003700e+04 7.81653100e-03 6.93870300e-02
  1000022 -1    0    0    0    0 +0.0000000000e+00 +0.0000000000e+00 +4.4721471353e+01 1.0000100000e+04 1.0000000000e+04 0.0000e+00 1.0000e+00
  1000022 -1    0    0    0    0 -0.0000000000e+00 -0.0000000000e+00 -4.4721471353e+01 1.0000100000e+04 1.0000000000e+04 0.0000e+00 1.0000e+00
      -24  1    1    2    0    0 -8.8174089809e+01 +9.5056473488e+03 -1.7805757581e+03 9.6717076512e+03 7.9829010000e+01 0.0000e+00 1.0000e+00
       24  1    1    2    0    0 +5.5488202984e+01 -8.1126418396e+03 +1.5297717519e+03 8.2561862165e+03 7.9829010000e+01 0.0000e+00 1.0000e+00
       22  1    1    2    0    0 +4.3288613170e+01 -1.7109043292e+03 +3.3353078574e+02 1.7436485634e+03 0.0000000000e+00 0.0000e+00 -1.0000e+00
       22  1    1    2    0    0 -1.0602726345e+01 +3.1789881995e+02 -8.2726779525e+01 3.2865756888e+02 0.0000000000e+00 0.0000e+00 -1.0000e+00
</event>
<event>
 6      1 +1.4834189e-01 1.00377100e+04 7.81653100e-03 6.93645300e-02
  1000022 -1    0    0    0    0 +0.0000000000e+00 +0.0000000000e+00 +4.4721471353e+01 1.0000100000e+04 1.0000000000e+04 0.0000e+00 1.0000e+00
  1000022 -1    0    0    0    0 -0.0000000000e+00 -0.0000000000e+00 -4.4721471353e+01 1.0000100000e+04 1.0000000000e+04 0.0000e+00 1.0000e+00
      -24  1    1    2    0    0 +4.9716817514e+02 -1.2404937556e+03 -2.3854583048e+02 1.3598815155e+03 7.9829010000e+01 0.0000e+00 1.0000e+00
       24  1    1    2    0    0 -2.7994363384e+03 +9.3376675096e+03 -1.7157880189e+03 9.8984432882e+03 7.9829010000e+01 0.0000e+00 -1.0000e+00
       22  1    1    2    0    0 +2.3390352088e+03 -8.1338399920e+03 +1.9168418960e+03 8.6778293126e+03 0.0000000000e+00 0.0000e+00 -1.0000e+00
       22  1    1    2    0    0 -3.6767045547e+01 +3.6666238095e+01 +3.7491953378e+01 6.4045883727e+01 0.0000000000e+00 0.0000e+00 1.0000e+00
</event>
<event>
 6      1 +1.4834189e-01 1.00919500e+04 7.81653100e-03 6.93320300e-02
  1000022 -1    0    0    0    0 +0.0000000000e+00 +0.0000000000e+00 +4.4721471353e+01 1.0000100000e+04 1.0000000000e+04 0.0000e+00 1.0000e+00
  1000022 -1    0    0    0    0 -0.0000000000e+00 -0.0000000000e+00 -4.4721471353e+01 1.0000100000e+04 1.0000000000e+04 0.0000e+00 1.0000e+00
      -24  1    1    2    0    0 +9.1046115243e+02 -1.8809744668e+03 -1.1402220177e+03 2.3819075077e+03 7.9829010000e+01 0.0000e+00 -1.0000e+00
       24  1    1    2    0    0 -8.3193499847e+02 +2.2534694788e+03 +2.5481669486e+03 3.5028228620e+03 7.9829010000e+01 0.0000e+00 1.0000e+00
       22  1    1    2    0    0 +1.1645482790e+03 -4.4603593318e+03 -6.1801142001e+03 7.7100447203e+03 0.0000000000e+00 0.0000e+00 1.0000e+00
       22  1    1    2    0    0 -1.2430744330e+03 +4.0878643198e+03 +4.7721692692e+03 6.4054249100e+03 0.0000000000e+00 0.0000e+00 1.0000e+00
</event>
<event>
 6      1 +1.4834189e-01 1.02636900e+04 7.81653100e-03 6.92304500e-02
  1000022 -1    0    0    0    0 +0.0000000000e+00 +0.0000000000e+00 +4.4721471353e+01 1.0000100000e+04 1.0000000000e+04 0.0000e+00 -1.0000e+00
  1000022 -1    0    0    0    0 -0.0000000000e+00 -0.0000000000e+00 -4.4721471353e+01 1.0000100000e+04 1.0000000000e+04 0.0000e+00 -1.0000e+00
      -24  1    1    2    0    0 +5.4843895935e+03 -4.0366986786e+02 -7.8217784269e+03 9.5618026023e+03 7.9829010000e+01 0.0000e+00 1.0000e+00
       24  1    1    2    0    0 -3.5028283440e+03 -1.3193397708e+03 +4.9530896523e+03 6.2088592843e+03 7.9829010000e+01 0.0000e+00 -1.0000e+00
       22  1    1    2    0    0 -2.0320707779e+03 +1.7719623626e+03 +3.0286113488e+03 4.0548303248e+03 0.0000000000e+00 0.0000e+00 1.0000e+00
       22  1    1    2    0    0 +5.0509528294e+01 -4.8952723979e+01 -1.5992257423e+02 1.7470778855e+02 0.0000000000e+00 0.0000e+00 1.0000e+00
</event>
<event>
 6      1 +1.4834189e-01 1.04881700e+04 7.81653100e-03 6.91006600e-02
  1000022 -1    0    0    0    0 +0.0000000000e+00 +0.0000000000e+00 +4.4721471353e+01 1.0000100000e+04 1.0000000000e+04 0.0000e+00 1.0000e+00
  1000022 -1    0    0    0    0 -0.0000000000e+00 -0.0000000000e+00 -4.4721471353e+01 1.0000100000e+04 1.0000000000e+04 0.0000e+00 1.0000e+00
      -24  1    1    2    0    0 -5.1761914157e+03 -7.2301334130e+03 +1.9336272809e+03 9.1001688926e+03 7.9829010000e+01 0.0000e+00 -1.0000e+00
       24  1    1    2    0    0 +6.3125979694e+03 +6.9322270540e+03 -1.6024166295e+03 9.5120332619e+03 7.9829010000e+01 0.0000e+00 -1.0000e+00
       22  1    1    2    0    0 -9.7900502995e+02 +4.8844748976e+02 -2.1552196491e+02 1.1151150238e+03 0.0000000000e+00 0.0000e+00 1.0000e+00
       22  1    1    2    0    0 -1.5740152378e+02 -1.9054113073e+02 -1.1568868653e+02 2.7288282170e+02 0.0000000000e+00 0.0000e+00 -1.0000e+00
</event>
<event>
 6      1 +1.4834189e-01 1.00235500e+04 7.81653100e-03 6.93730600e-02
  1000022 -1    0    0    0    0 +0.0000000000e+00 +0.0000000000e+00 +4.4721471353e+01 1.0000100000e+04 1.0000000000e+04 0.0000e+00 -1.0000e+00
  1000022 -1    0    0    0    0 -0.0000000000e+00 -0.0000000000e+00 -4.4721471353e+01 1.0000100000e+04 1.0000000000e+04 0.0000e+00 -1.0000e+00
      -24  1    1    2    0    0 -3.0362037050e+03 -4.6571306896e+03 +8.2837095091e+03 9.9766535021e+03 7.9829010000e+01 0.0000e+00 -1.0000e+00
       24  1    1    2    0    0 +3.0671938659e+03 +4.5441504395e+03 -8.0473201951e+03 9.7376956422e+03 7.9829010000e+01 0.0000e+00 -1.0000e+00
       22  1    1    2    0    0 +1.5034695202e+01 +1.1338749795e+02 -1.7643426284e+02 2.1026605968e+02 0.0000000000e+00 0.0000e+00 -1.0000e+00
       22  1    1    2    0    0 -4.6024856030e+01 -4.0724791842e-01 -5.9955051215e+01 7.5584796022e+01 0.0000000000e+00 0.0000e+00 -1.0000e+00
</event>
<event>
 6      1 +1.4834189e-01 1.00029300e+04 7.81653100e-03 6.93854800e-02
  1000022 -1    0    0    0    0 +0.0000000000e+00 +0.0000000000e+00 +4.4721471353e+01 1.0000100000e+04 1.0000000000e+04 0.0000e+00 1.0000e+00
  1000022 -1    0    0    0    0 -0.0000000000e+00 -0.0000000000e+00 -4.4721471353e+01 1.0000100000e+04 1.0000000000e+04 0.0000e+00 1.0000e+00
      -24  1    1    2    0    0 -2.4665183369e+03 -9.5746015904e+03 -7.4056725252e+02 9.9152166314e+03 7.9829010000e+01 0.0000e+00 -1.0000e+00
       24  1    1    2    0    0 +2.4007932313e+03 +9.4909263988e+03 +8.1502643142e+02 9.8240588761e+03 7.9829010000e+01 0.0000e+00 -1.0000e+00
       22  1    1    2    0    0 +1.1789386255e+02 +1.3066227643e+02 -3.1994953952e+01 1.7887221804e+02 0.0000000000e+00 0.0000e+00 1.0000e+00
       22  1    1    2    0    0 -5.2168756970e+01 -4.6987084815e+01 -4.2464224941e+01 8.2052274454e+01 0.0000000000e+00 0.0000e+00 -1.0000e+00
</event>
<event>
 6      1 +1.4834189e-01 1.00084400e+04 7.81653100e-03 6.93821600e-02
  1000022 -1    0    0    0    0 +0.0000000000e+00 +0.0000000000e+00 +4.4721471353e+01 1.0000100000e+04 1.0000000000e+04 0.0000e+00 1.0000e+00
  1000022 -1    0    0    0    0 -0.0000000000e+00 -0.0000000000e+00 -4.4721471353e+01 1.0000100000e+04 1.0000000000e+04 0.0000e+00 1.0000e+00
      -24  1    1    2    0    0 -5.9918817112e+03 -4.4649814385e+03 +6.6212218137e+03 9.9842704623e+03 7.9829010000e+01 0.0000e+00 1.0000e+00
       24  1    1    2    0    0 +5.9720528169e+03 +4.4246714189e+03 -6.5687622320e+03 9.9195837586e+03 7.9829010000e+01 0.0000e+00 1.0000e+00
       22  1    1    2    0    0 +4.2575372882e+01 +3.3882332239e+01 -4.7423599122e+01 7.2178061540e+01 0.0000000000e+00 0.0000e+00 1.0000e+00
       22  1    1    2    0    0 -2.2746478539e+01 +6.4276873206e+00 -5.0359825338e+00 2.4167717523e+01 0.0000000000e+00 0.0000e+00 -1.0000e+00
</event>
<event>
 6      1 +1.4834189e-01 1.00052800e+04 7.81653100e-03 6.93840700e-02
  1000022 -1    0    0    0    0 +0.0000000000e+00 +0.0000000000e+00 +4.4721471353e+01 1.0000100000e+04 1.0000000000e+04 0.0000e+00 -1.0000e+00
  1000022 -1    0    0    0    0 -0.0000000000e+00 -0.0000000000e+00 -4.4721471353e+01 1.0000100000e+04 1.0000000000e+04 0.0000e+00 -1.0000e+00
      -24  1    1    2    0    0 +2.3355947402e+03 -1.7272511766e+03 -9.5631409287e+03 9.9949205355e+03 7.9829010000e+01 0.0000e+00 1.0000e+00
       24  1    1    2    0    0 -2.0586295241e+03 +1.4255619476e+03 +8.4680174570e+03 8.8308479042e+03 7.9829010000e+01 0.0000e+00 1.0000e+00
       22  1    1    2    0    0 -6.2713472517e+00 +1.9382277853e+01 +1.3953730821e+01 2.4692288168e+01 0.0000000000e+00 0.0000e+00 -1.0000e+00
       22  1    1    2    0    0 -2.7069386884e+02 +2.8230695120e+02 +1.0811697409e+03 1.1497392722e+03 0.0000000000e+00 0.0000e+00 1.0000e+00
</event>
<event>
 6      1 +1.4834189e-01 1.01328300e+04 7.81653100e-03 6.93076700e-02
  1000022 -1    0    0    0    0 +0.0000000000e+00 +0.0000000000e+00 +4.4721471353e+01 1.0000100000e+04 1.0000000000e+04 0.0000e+00 1.0000e+00
  1000022 -1    0    0    0    0 -0.0000000000e+00 -0.0000000000e+00 -4.4721471353e+01 1.0000100000e+04 1.0000000000e+04 0.0000e+00 1.0000e+00
      -24  1    1    2    0    0 -3.7878084823e+03 +5.0777582778e+03 +4.1440239129e+03 7.5703651886e+03 7.9829010000e+01 0.0000e+00 1.0000e+00
       24  1    1    2    0    0 +4.3012635034e+03 -6.5879331139e+03 -5.8232808773e+03 9.7887028398e+03 7.9829010000e+01 0.0000e+00 1.0000e+00
       22  1    1    2    0    0 -8.3590041595e+02 +1.4432980776e+03 +1.5793698741e+03 2.2970084992e+03 0.0000000000e+00 0.0000e+00 1.0000e+00
       22  1    1    2    0    0 +3.2244539488e+02 +6.6876758510e+01 +9.9887090341e+01 3.4412347250e+02 0.0000000000e+00 0.0000e+00 1.0000e+00
</event>
<event>
 6      1 +1.4834189e-01 1.00072500e+04 7.81653100e-03 6.93828800e-02
  1000022 -1    0    0    0    0 +0.0000000000e+00 +0.0000000000e+00 +4.4721471353e+01 1.0000100000e+04 1.0000000000e+04 0.0000e+00 -1.0000e+00
  1000022 -1    0    0    0    0 -0.0000000000e+00 -0.0000000000e+00 -4.4721471353e+01 1.0000100000e+04 1.0000000000e+04 0.0000e+00 -1.0000e+00
      -24  1    1    2    0    0 -6.2025816050e+03 -3.8459783999e+03 +6.7503350714e+03 9.9416781615e+03 7.9829010000e+01 0.0000e+00 1.0000e+00
       24  1    1    2    0    0 +6.2518900574e+03 +3.8756440855e+03 -6.7635699423e+03 9.9929473832e+03 7.9829010000e+01 0.0000e+00 1.0000e+00
       22  1    1    2    0    0 -3.3918676174e+01 -2.0315553911e+01 -5.1125915014e+00 3.9866488633e+01 0.0000000000e+00 0.0000e+00 1.0000e+00
       22  1    1    2    0    0 -1.5389776261e+01 -9.3501316190e+00 +1.8347462435e+01 2.5707966712e+01 0.0000000000e+00 0.0000e+00 -1.0000e+00
</event>
<event>
 6      1 +1.4834189e-01 1.00168200e+04 7.81653100e-03 6.93771100e-02
  1000022 -1    0    0    0    0 +0.0000000000e+00 +0.0000000000e+00 +4.4721471353e+01 1.0000100000e+04 1.0000000000e+04 0.0000e+00 -1.0000e+00
  1000022 -1    0    0    0    0 -0.0000000000e+00 -0.0000000000e+00 -4.4721471353e+01 1.0000100000e+04 1.0000000000e+04 0.0000e+00 -1.0000e+00
      -24  1    1    2    0    0 -9.5651879232e+03 -5.6971936936e+02 -2.2940605728e+03 9.8532475229e+03 7.9829010000e+01 0.0000e+00 1.0000e+00
       24  1    1    2    0    0 +8.9037510940e+03 +3.2059348541e+02 +2.2085975792e+03 9.1795337390e+03 7.9829010000e+01 0.0000e+00 1.0000e+00
       22  1    1    2    0    0 -1.2620401235e+02 -1.0379673827e+01 -2.9984860959e+01 1.3013178801e+02 0.0000000000e+00 0.0000e+00 -1.0000e+00
       22  1    1    2    0    0 +7.8764084148e+02 +2.5950555778e+02 +1.1544785457e+02 8.3728695010e+02 0.0000000000e+00 0.0000e+00 -1.0000e+00
</event>
<event>
 6      1 +1.4834189e-01 1.00003300e+04 7.81653100e-03 6.93870600e-02
  1000022 -1    0    0    0    0 +0.0000000000e+00 +0.0000000000e+00 +4.4721471353e+01 1.0000100000e+04 1.0000000000e+04 0.0000e+00 -1.0000e+00
  1000022 -1    0    0    0    0 -0.0000000000e+00 -0.0000000000e+00 -4.4721471353e+01 1.0000100000e+04 1.0000000000e+04 0.0000e+00 -1.0000e+00
      -24  1    1    2    0    0 +2.6641320117e+03 +7.4183879931e+03 +6.7845112469e+02 7.9118106899e+03 7.9829010000e+01 0.0000e+00 -1.0000e+00
       24  1    1    2    0    0 -3.2052725264e+03 -8.9160955909e+03 -7.4879205560e+02 9.5046091328e+03 7.9829010000e+01 0.0000e+00 -1.0000e+00
       22  1    1    2    0    0 +6.9302666425e+02 +1.9665856562e+03 +1.1900780306e+02 2.0885181249e+03 0.0000000000e+00 0.0000e+00 1.0000e+00
       22  1    1    2    0    0 -1.5188614960e+02 -4.6887805846e+02 -4.8666872153e+01 4.9526205245e+02 0.0000000000e+00 0.0000e+00 1.0000e+00
</event>
<event>
 6      1 +1.4834189e-01 1.00942200e+04 7.81653100e-03 6.93306800e-02
  1000022 -1    0    0    0    0 +0.0000000000e+00 +0.0000000000e+00 +4.4721471353e+01 1.0000100000e+04 1.0000000000e+04 0.0000e+00 1.0000e+00
  1000022 -1    0    0    0    0 -0.0000000000e+00 -0.0000000000e+00 -4.4721471353e+01 1.0000100000e+04 1.0000000000e+04 0.0000e+00 1.0000e+00
      -24  1    1    2    0    0 +6.9441819690e+02 -3.8799030273e+01 +9.3548248153e+02 1.1684272083e+03 7.9829010000e+01 0.0000e+00 1.0000e+00
       24  1    1    2    0    0 -8.1182251996e+03 +3.2826024251e+02 -5.6664607031e+03 9.9059822707e+03 7.9829010000e+01 0.0000e+00 1.0000e+00
       22  1    1    2    0    0 +2.9188962268e+02 +1.9555132305e+01 +6.2621854896e+02 6.9118132649e+02 0.0000000000e+00 0.0000e+00 -1.0000e+00
       22  1    1    2    0    0 +7.1319173800e+03 -3.0901634454e+02 +4.1047596726e+03 8.2346091945e+03 0.0000000000e+00 0.0000e+00 1.0000e+00
</event>
<event>
 6      1 +1.4834189e-01 1.00002000e+04 7.81653100e-03 6.93871300e-02
  1000022 -1    0    0    0    0 +0.0000000000e+00 +0.0000000000e+00 +4.4721471353e+01 1.0000100000e+04 1.0000000000e+04 0.0000e+00 1.0000e+00
  1000022 -1    0    0    0    0 -0.0000000000e+00 -0.0000000000e+00 -4.4721471353e+01 1.0000100000e+04 1.0000000000e+04 0.0000e+00 1.0000e+00
      -24  1    1    2    0    0 +9.0905758568e+03 -3.7524586525e+03 -1.6944198968e+03 9.9798269927e+03 7.9829010000e+01 0.0000e+00 -1.0000e+00
       24  1    1    2    0    0 -4.5126428788e+03 +1.8886783734e+03 +8.4579007719e+02 4.9651571250e+03 7.9829010000e+01 0.0000e+00 0.0000e+00
       22  1    1    2    0    0 -4.5948778612e+03 +1.8734901749e+03 +8.5368659382e+02 5.0350420847e+03 0.0000000000e+00 0.0000e+00 -1.0000e+00
       22  1    1    2    0    0 +1.6944883202e+01 -9.7098958471e+00 -5.0567741900e+00 2.0173797593e+01 0.0000000000e+00 0.0000e+00 1.0000e+00
</event>
<event>
 6      1 +1.4834189e-01 5.42515200e+03 7.81653100e-03 7.32905600e-02
  1000022 -1    0    0    0    0 +0.0000000000e+00 +0.0000000000e+00 +4.4721471353e+01 1.0000100000e+04 1.0000000000e+04 0.0000e+00 -1.0000e+00
  1000022 -1    0    0    0    0 -0.0000000000e+00 -0.0000000000e+00 -4.4721471353e+01 1.0000100000e+04 1.0000000000e+04 0.0000e+00 -1.0000e+00
      -24  1    1    2    0    0 +1.4886619594e+03 +6.1239999041e+03 +2.3023011558e+03 6.7101752986e+03 7.9829010000e+01 0.0000e+00 -1.0000e+00
       24  1    1    2    0    0 -4.5777431527e+03 -6.5459346292e+03 +1.3613880993e+03 8.1033784788e+03 7.9829010000e+01 0.0000e+00 -1.0000e+00
       22  1    1    2    0    0 +3.0074127396e+03 +1.0890572127e+02 -3.7898976035e+03 4.8393920783e+03 0.0000000000e+00 0.0000e+00 -1.0000e+00
       22  1    1    2    0    0 +8.1668453761e+01 +3.1302900385e+02 +1.2620834842e+02 3.4725414440e+02 0.0000000000e+00 0.0000e+00 -1.0000e+00
</event>
<event>
 6      1 +1.4834189e-01 1.00337700e+04 7.81653100e-03 6.93669000e-02
  1000022 -1    0    0    0    0 +0.0000000000e+00 +0.0000000000e+00 +4.4721471353e+01 1.0000100000e+04 1.0000000000e+04 0.0000e+00 1.0000e+00
  1000022 -1    0    0    0    0 -0.0000000000e+00 -0.0000000000e+00 -4.4721471353e+01 1.0000100000e+04 1.0000000000e+04 0.0000e+00 1.0000e+00
      -24  1    1    2    0    0 +1.9011969568e+03 -6.2699300022e+03 -7.4613145367e+03 9.9299627083e+03 7.9829010000e+01 0.0000e+00 1.0000e+00
       24  1    1    2    0    0 -1.8832866988e+03 +6.3233099840e+03 +7.3720624484e+03 9.8936694587e+03 7.9829010000e+01 0.0000e+00 1.0000e+00
       22  1    1    2    0    0 -4.0243285120e+00 -9.8139541545e+01 +3.3595265889e+01 1.0380850989e+02 0.0000000000e+00 0.0000e+00 1.0000e+00
       22  1    1    2    0    0 -1.3885929462e+01 +4.4759559759e+01 +5.5656822411e+01 7.2759323167e+01 0.0000000000e+00 0.0000e+00 1.0000e+00
</event>
<event>
 6      1 +1.4834189e-01 1.00002000e+04 7.81653100e-03 6.93871400e-02
  1000022 -1    0    0    0    0 +0.0000000000e+00 +0.0000000000e+00 +4.4721471353e+01 1.0000100000e+04 1.0000000000e+04 0.0000e+00 1.0000e+00
  1000022 -1    0    0    0    0 -0.0000000000e+00 -0.0000000000e+00 -4.4721471353e+01 1.0000100000e+04 1.0000000000e+04 0.0000e+00 1.0000e+00
      -24  1    1    2    0    0 -8.0643332453e+03 -4.6773791049e+03 +3.5720776777e+03 9.9838598542e+03 7.9829010000e+01 0.0000e+00 -1.0000e+00
       24  1    1    2    0    0 +7.9195071964e+03 +4.5843773438e+03 -3.5101726156e+03 9.8011629068e+03 7.9829010000e+01 0.0000e+00 -1.0000e+00
       22  1    1    2    0    0 -1.3297606084e+01 -7.6985377438e+00 +4.9554339870e+00 1.6144662801e+01 0.0000000000e+00 0.0000e+00 -1.0000e+00
       22  1    1    2    0    0 +1.5812365491e+02 +1.0070029891e+02 -6.6860496088e+01 1.9903257618e+02 0.0000000000e+00 0.0000e+00 -1.0000e+00
</event>
<event>
 6      1 +1.4834189e-01 1.00016700e+04 7.81653100e-03 6.93862500e-02
  1000022 -1    0    0    0    0 +0.0000000000e+00 +0.0000000000e+00 +4.4721471353e+01 1.0000100000e+04 1.0000000000e+04 0.0000e+00 1.0000e+00
  1000022 -1    0    0    0    0 -0.0000000000e+00 -0.0000000000e+00 -4.4721471353e+01 1.0000100000e+04 1.0000000000e+04 0.0000e+00 1.0000e+00
      -24  1    1    2    0    0 +1.1074282051e+03 +1.0639055862e+03 +5.1026587495e+01 1.5385930942e+03 7.9829010000e+01 0.0000e+00 0.0000e+00
       24  1    1    2    0    0 -6.4642251515e+03 -6.2427093733e+03 -7.1614042341e+02 9.0153678186e+03 7.9829010000e+01 0.0000e+00 1.0000e+00
       22  1    1    2    0    0 +6.0604574852e+03 +5.8634760947e+03 +7.1704155808e+02 8.4630754126e+03 0.0000000000e+00 0.0000e+00 1.0000e+00
       22  1    1    2    0    0 -7.0366053881e+02 -6.8467230767e+02 -5.1927722169e+01 9.8316367462e+02 0.0000000000e+00 0.0000e+00 -1.0000e+00
</event>
<event>
 6      1 +1.4834189e-01 1.00009300e+04 7.81653100e-03 6.93866900e-02
  1000022 -1    0    0    0    0 +0.0000000000e+00 +0.0000000000e+00 +4.4721471353e+01 1.0000100000e+04 1.0000000000e+04 0.0000e+00 1.0000e+00
  1000022 -1    0    0    0    0 -0.0000000000e+00 -0.0000000000e+00 -4.4721471353e+01 1.0000100000e+04 1.0000000000e+04 0.0000e+00 1.0000e+00
      -24  1    1    2    0    0 +8.7967447277e+03 +4.2172640833e+03 +1.6878668751e+03 9.9006717656e+03 7.9829010000e+01 0.0000e+00 -1.0000e+00
       24  1    1    2    0    0 -8.3213835808e+03 -3.9672640999e+03 -1.4962930493e+03 9.3396935013e+03 7.9829010000e+01 0.0000e+00 -1.0000e+00
       22  1    1    2    0    0 +7.8478925374e+01 +5.9460467261e+01 -5.2182780534e+00 9.8598779509e+01 0.0000000000e+00 0.0000e+00 1.0000e+00
       22  1    1    2    0    0 -5.5384007223e+02 -3.0946045067e+02 -1.8635554769e+02 6.6123595357e+02 0.0000000000e+00 0.0000e+00 -1.0000e+00
</event>
<event>
 6      1 +1.4834189e-01 1.02825200e+04 7.81653100e-03 6.92194400e-02
  1000022 -1    0    0    0    0 +0.0000000000e+00 +0.0000000000e+00 +4.4721471353e+01 1.0000100000e+04 1.0000000000e+04 0.0000e+00 -1.0000e+00
  1000022 -1    0    0    0    0 -0.0000000000e+00 -0.0000000000e+00 -4.4721471353e+01 1.0000100000e+04 1.0000000000e+04 0.0000e+00 -1.0000e+00
      -24  1    1    2    0    0 +1.1051504550e+03 +5.4589149816e+02 -4.2857278433e+02 1.3074411491e+03 7.9829010000e+01 0.0000e+00 1.0000e+00
       24  1    1    2    0    0 -7.2364651734e+03 -4.9456208394e+03 +4.1954060545e+03 9.7176848234e+03 7.9829010000e+01 0.0000e+00 -1.0000e+00
       22  1    1    2    0    0 +4.4379423347e+03 +4.3982543498e+03 -2.0810578088e+03 6.5856491780e+03 0.0000000000e+00 0.0000e+00 -1.0000e+00
       22  1    1    2    0    0 +1.6933723837e+03 +1.4749914700e+00 -1.6857754614e+03 2.3894248495e+03 0.0000000000e+00 0.0000e+00 -1.0000e+00
</event>
<event>
 6      1 +1.4834189e-01 1.03505900e+04 7.81653100e-03 6.91798200e-02
  1000022 -1    0    0    0    0 +0.0000000000e+00 +0.0000000000e+00 +4.4721471353e+01 1.0000100000e+04 1.0000000000e+04 0.0000e+00 1.0000e+00
  1000022 -1    0    0    0    0 -0.0000000000e+00 -0.0000000000e+00 -4.4721471353e+01 1.0000100000e+04 1.0000000000e+04 0.0000e+00 1.0000e+00
      -24  1    1    2    0    0 +2.7854512383e+02 +6.0812132122e+02 +2.6957451682e+02 7.2556324210e+02 7.9829010000e+01 0.0000e+00 1.0000e+00
       24  1    1    2    0    0 -5.5836251442e+03 -2.8172464956e+03 -3.1233796940e+03 6.9911101373e+03 7.9829010000e+01 0.0000e+00 1.0000e+00
       22  1    1    2    0    0 -7.8522211192e+02 -3.1498585244e+03 -8.6481787491e+02 3.3594780019e+03 0.0000000000e+00 0.0000e+00 1.0000e+00
       22  1    1    2    0    0 +6.0903021322e+03 +5.3589836987e+03 +3.7186230521e+03 8.9240486187e+03 0.0000000000e+00 0.0000e+00 1.0000e+00
</event>
<event>
 6      1 +1.4834189e-01 1.00683700e+04 7.81653100e-03 6.93461400e-02
  1000022 -1    0    0    0    0 +0.0000000000e+00 +0.0000000000e+00 +4.4721471353e+01 1.0000100000e+04 1.0000000000e+04 0.0000e+00 -1.0000e+00
  1000022 -1    0    0    0    0 -0.0000000000e+00 -0.0000000000e+00 -4.4721471353e+01 1.0000100000e+04 1.0000000000e+04 0.0000e+00 -1.0000e+00
      -24  1    1    2    0    0 -1.5720516647e+02 -6.4742113422e+03 +5.7804230881e+03 8.6810016540e+03 7.9829010000e+01 0.0000e+00 -1.0000e+00
       24  1    1    2    0    0 +7.2559326011e+01 +7.2128846466e+03 -6.8267058527e+03 9.9318304079e+03 7.9829010000e+01 0.0000e+00 -1.0000e+00
       22  1    1    2    0    0 -1.9285503221e+02 -1.1068884741e+02 +2.1614335364e+02 3.1010165061e+02 0.0000000000e+00 0.0000e+00 -1.0000e+00
       22  1    1    2    0    0 +2.7750087267e+02 -6.2798445698e+02 +8.3013941094e+02 1.0772662875e+03 0.0000000000e+00 0.0000e+00 1.0000e+00
</event>
<event>
 6      1 +1.4834189e-01 1.00046600e+04 7.81653100e-03 6.93844400e-02
  1000022 -1    0    0    0    0 +0.0000000000e+00 +0.0000000000e+00 +4.4721471353e+01 1.0000100000e+04 1.0000000000e+04 0.0000e+00 1.0000e+00
  1000022 -1    0    0    0    0 -0.0000000000e+00 -0.0000000000e+00 -4.4721471353e+01 1.0000100000e+04 1.0000000000e+04 0.0000e+00 1.0000e+00
      -24  1    1    2    0    0 -5.4250417348e+03 +5.2465902291e+03 -6.3005598498e+03 9.8316435019e+03 7.9829010000e+01 0.0000e+00 1.0000e+00
       24  1    1    2    0    0 +5.5279748054e+03 -5.2898723660e+03 +6.4314221361e+03 9.9955399285e+03 7.9829010000e+01 0.0000e+00 1.0000e+00
       22  1    1    2    0    0 -9.6470493425e+01 +3.5250022722e+01 -1.2144618120e+02 1.5905437790e+02 0.0000000000e+00 0.0000e+00 1.0000e+00
       22  1    1    2    0    0 -6.4625771605e+00 +8.0321142137e+00 -9.4161051381e+00 1.3962191743e+01 0.0000000000e+00 0.0000e+00 1.0000e+00
</event>
<event>
 6      1 +1.4834189e-01 7.02586700e+03 7.81653100e-03 7.15872100e-02
  1000022 -1    0    0    0    0 +0.0000000000e+00 +0.0000000000e+00 +4.4721471353e+01 1.0000100000e+04 1.0000000000e+04 0.0000e+00 1.0000e+00
  1000022 -1    0    0    0    0 -0.0000000000e+00 -0.0000000000e+00 -4.4721471353e+01 1.0000100000e+04 1.0000000000e+04 0.0000e+00 1.0000e+00
      -24  1    1    2    0    0 +5.4201483035e+03 -6.9343050055e+03 -2.6164559824e+03 9.1823095199e+03 7.9829010000e+01 0.0000e+00 -1.0000e+00
       24  1    1    2    0    0 -4.5644548155e+03 +2.1528245378e+03 -4.2436889650e+02 5.0651123269e+03 7.9829010000e+01 0.0000e+00 -1.0000e+00
       22  1    1    2    0    0 -8.5995440823e+02 +4.7925382739e+03 +3.0414050254e+03 5.7409136224e+03 0.0000000000e+00 0.0000e+00 -1.0000e+00
       22  1    1    2    0    0 +4.2609202514e+00 -1.1057806219e+01 -5.8014647584e-01 1.1864530741e+01 0.0000000000e+00 0.0000e+00 -1.0000e+00
</event>
<event>
 6      1 +1.4834189e-01 1.00148200e+04 7.81653100e-03 6.93783100e-02
  1000022 -1    0    0    0    0 +0.0000000000e+00 +0.0000000000e+00 +4.4721471353e+01 1.0000100000e+04 1.0000000000e+04 0.0000e+00 -1.0000e+00
  1000022 -1    0    0    0    0 -0.0000000000e+00 -0.0000000000e+00 -4.4721471353e+01 1.0000100000e+04 1.0000000000e+04 0.0000e+00 -1.0000e+00
      -24  1    1    2    0    0 -3.4131245533e+03 -1.8843415308e+03 -9.1924559039e+03 9.9853783322e+03 7.9829010000e+01 0.0000e+00 -1.0000e+00
       24  1    1    2    0    0 +3.1941160187e+03 +1.7513116103e+03 +8.2010394905e+03 8.9740119730e+03 7.9829010000e+01 0.0000e+00 -1.0000e+00
       22  1    1    2    0    0 +6.8854249394e+01 +2.9934319278e+00 +7.0029198094e+01 9.8254551447e+01 0.0000000000e+00 0.0000e+00 1.0000e+00
       22  1    1    2    0    0 +1.5015428520e+02 +1.3003648857e+02 +9.2138721532e+02 9.4255514336e+02 0.0000000000e+00 0.0000e+00 -1.0000e+00
</event>
<event>
 6      1 +1.4834189e-01 1.00383000e+04 7.81653100e-03 6.93641800e-02
  1000022 -1    0    0    0    0 +0.0000000000e+00 +0.0000000000e+00 +4.4721471353e+01 1.0000100000e+04 1.0000000000e+04 0.0000e+00 1.0000e+00
  1000022 -1    0    0    0    0 -0.0000000000e+00 -0.0000000000e+00 -4.4721471353e+01 1.0000100000e+04 1.0000000000e+04 0.0000e+00 1.0000e+00
      -24  1    1    2    0    0 -4.4850135921e+03 +8.4515784515e+03 -2.7728219673e+03 9.9618993960e+03 7.9829010000e+01 0.0000e+00 -1.0000e+00
       24  1    1    2    0    0 +4.0739097366e+03 -8.0857198261e+03 +2.3985584500e+03 9.3666995765e+03 7.9829010000e+01 0.0000e+00 -1.0000e+00
       22  1    1    2    0    0 +2.5747216282e+01 -5.2477342051e+01 +2.1084226167e+01 6.2139642484e+01 0.0000000000e+00 0.0000e+00 1.0000e+00
       22  1    1    2    0    0 +3.8535663919e+02 -3.1338128338e+02 +3.5317929114e+02 6.0946138502e+02 0.0000000000e+00 0.0000e+00 1.0000e+00
</event>
<event>
 6      1 +1.4834189e-01 1.06272600e+04 7.81653100e-03 6.90218600e-02
  1000022 -1    0    0    0    0 +0.0000000000e+00 +0.0000000000e+00 +4.4721471353e+01 1.0000100000e+04 1.0000000000e+04 0.0000e+00 -1.0000e+00
  1000022 -1    0    0    0    0 -0.0000000000e+00 -0.0000000000e+00 -4.4721471353e+01 1.0000100000e+04 1.0000000000e+04 0.0000e+00 -1.0000e+00
      -24  1    1    2    0    0 -1.7273242795e+03 -1.5918461304e+03 +9.0734783553e+03 9.3729400620e+03 7.9829010000e+01 0.0000e+00 1.0000e+00
       24  1    1    2    0    0 +2.6220498878e+03 +9.1441527017e+02 -2.0937757052e+03 3.4787311300e+03 7.9829010000e+01 0.0000e+00 -1.0000e+00
       22  1    1    2    0    0 +1.2138877994e+02 +2.3547103487e+01 -8.8170217754e+01 1.5186734104e+02 0.0000000000e+00 0.0000e+00 1.0000e+00
       22  1    1    2    0    0 -1.0161143882e+03 +6.5388375676e+02 -6.8915324324e+03 6.9966614670e+03 0.0000000000e+00 0.0000e+00 1.0000e+00
</event>
<event>
 6      1 +1.4834189e-01 1.00007900e+04 7.81653100e-03 6.93867800e-02
  1000022 -1    0    0    0    0 +0.0000000000e+00 +0.0000000000e+00 +4.4721471353e+01 1.0000100000e+04 1.0000000000e+04 0.0000e+00 1.0000e+00
  1000022 -1    0    0    0    0 -0.0000000000e+00 -0.0000000000e+00 -4.4721471353e+01 1.0000100000e+04 1.0000000000e+04 0.0000e+00 1.0000e+00
      -24  1    1    2    0    0 +6.9903325501e+03 +7.1016502367e+03 +2.4890367431e+02 9.9682752247e+03 7.9829010000e+01 0.0000e+00 1.0000e+00
       24  1    1    2    0    0 -9.4366988253e+02 -9.5725388101e+02 -4.6438648097e+01 1.3473592909e+03 7.9829010000e+01 0.0000e+00 0.0000e+00
       22  1    1    2    0    0 +1.0584345524e+01 +3.0431764344e+01 -4.3670436482e+00 3.2514484795e+01 0.0000000000e+00 0.0000e+00 1.0000e+00
       22  1    1    2    0    0 -6.0572470131e+03 -6.1748281201e+03 -1.9809798256e+02 8.6520509996e+03 0.0000000000e+00 0.0000e+00 1.0000e+00
</event>
<event>
 6      1 +1.4834189e-01 1.00037400e+04 7.81653100e-03 6.93849900e-02
  1000022 -1    0    0    0    0 +0.0000000000e+00 +0.0000000000e+00 +4.4721471353e+01 1.0000100000e+04 1.0000000000e+04 0.0000e+00 1.0000e+00
  1000022 -1    0    0    0    0 -0.0000000000e+00 -0.0000000000e+00 -4.4721471353e+01 1.0000100000e+04 1.0000000000e+04 0.0000e+00 1.0000e+00
      -24  1    1    2    0    0 -4.5930011089e+03 -7.4162273801e+02 +8.8377293636e+03 9.9878674624e+03 7.9829010000e+01 0.0000e+00 1.0000e+00
       24  1    1    2    0    0 +3.5128406899e+03 +5.2254230078e+02 -6.6781927733e+03 7.5642403159e+03 7.9829010000e+01 0.0000e+00 1.0000e+00
       22  1    1    2    0    0 +1.0800270200e+03 +2.3322237094e+02 -2.1667529732e+03 2.4322149340e+03 0.0000000000e+00 0.0000e+00 1.0000e+00
       22  1    1    2    0    0 +1.3339894438e-01 -1.4141933715e+01 +7.2163828119e+00 1.5877287721e+01 0.0000000000e+00 0.0000e+00 -1.0000e+00
</event>
<event>
 6      1 +1.4834189e-01 1.02728900e+04 7.81653100e-03 6.92250700e-02
  1000022 -1    0    0    0    0 +0.0000000000e+00 +0.0000000000e+00 +4.4721471353e+01 1.0000100000e+04 1.0000000000e+04 0.0000e+00 -1.0000e+00
  1000022 -1    0    0    0    0 -0.0000000000e+00 -0.0000000000e+00 -4.4721471353e+01 1.0000100000e+04 1.0000000000e+04 0.0000e+00 -1.0000e+00
      -24  1    1    2    0    0 +9.5184192149e+03 +5.0095900602e+00 -1.6035320680e+03 9.6528761108e+03 7.9829010000e+01 0.0000e+00 -1.0000e+00
       24  1    1    2    0    0 -9.6335197969e+03 -4.3061979182e+02 +1.2744013788e+03 9.7273125080e+03 7.9829010000e+01 0.0000e+00 -1.0000e+00
       22  1    1    2    0    0 +6.3233072890e+01 -2.6742967237e+00 -1.8532128795e+01 6.5947048211e+01 0.0000000000e+00 0.0000e+00 -1.0000e+00
       22  1    1    2    0    0 +5.1867509167e+01 +4.2828449848e+02 +3.4766281793e+02 5.5406433301e+02 0.0000000000e+00 0.0000e+00 1.0000e+00
</event>
<event>
 6      1 +1.4834189e-01 1.00063500e+04 7.81653100e-03 6.93834200e-02
  1000022 -1    0    0    0    0 +0.0000000000e+00 +0.0000000000e+00 +4.4721471353e+01 1.0000100000e+04 1.0000000000e+04 0.0000e+00 1.0000e+00
  1000022 -1    0    0    0    0 -0.0000000000e+00 -0.0000000000e+00 -4.4721471353e+01 1.0000100000e+04 1.0000000000e+04 0.0000e+00 1.0000e+00
      -24  1    1    2    0    0 -6.5421726876e+02 +1.4081585136e+02 +6.7965869232e+02 9.5715095341e+02 7.9829010000e+01 0.0000e+00 -1.0000e+00
       24  1    1    2    0    0 +7.8198587355e+03 +1.8703238843e+03 -5.1067050125e+03 9.5253929489e+03 7.9829010000e+01 0.0000e+00 -1.0000e+00
       22  1    1    2    0    0 +2.2525754236e+02 -4.1658445397e+01 -4.0862756671e+02 4.6845797542e+02 0.0000000000e+00 0.0000e+00 -1.0000e+00
       22  1    1    2    0    0 -7.3908990091e+03 -1.9694812902e+03 +4.8356738869e+03 9.0491981223e+03 0.0000000000e+00 0.0000e+00 -1.0000e+00
</event>
<event>
 6      1 +1.4834189e-01 1.00036500e+04 7.81653100e-03 6.93850500e-02
  1000022 -1    0    0    0    0 +0.0000000000e+00 +0.0000000000e+00 +4.4721471353e+01 1.0000100000e+04 1.0000000000e+04 0.0000e+00 1.0000e+00
  1000022 -1    0    0    0    0 -0.0000000000e+00 -0.0000000000e+00 -4.4721471353e+01 1.0000100000e+04 1.0000000000e+04 0.0000e+00 1.0000e+00
      -24  1    1    2    0    0 -4.2242327217e+02 -9.4642390012e+03 -3.1897395785e+03 9.9965530331e+03 7.9829010000e+01 0.0000e+00 -1.0000e+00
       24  1    1    2    0    0 +4.2968532416e+02 +9.4486483358e+03 +3.1897994373e+03 9.9821229191e+03 7.9829010000e+01 0.0000e+00 -1.0000e+00
       22  1    1    2    0    0 -9.1111865847e+00 +5.5508018947e+00 -2.6475100174e+00 1.0992471603e+01 0.0000000000e+00 0.0000e+00 1.0000e+00
       22  1    1    2    0    0 +1.8491345993e+00 +1.0039863540e+01 +2.5876512225e+00 1.0531576213e+01 0.0000000000e+00 0.0000e+00 -1.0000e+00
</event>
<event>
 6      1 +1.4834189e-01 1.01804700e+04 7.81653100e-03 6.92794200e-02
  1000022 -1    0    0    0    0 +0.0000000000e+00 +0.0000000000e+00 +4.4721471353e+01 1.0000100000e+04 1.0000000000e+04 0.0000e+00 -1.0000e+00
  1000022 -1    0    0    0    0 -0.0000000000e+00 -0.0000000000e+00 -4.4721471353e+01 1.0000100000e+04 1.0000000000e+04 0.0000e+00 -1.0000e+00
      -24  1    1    2    0    0 -1.7135788695e+02 -1.4442553911e+02 +5.0422170175e+01 2.4318167663e+02 7.9829010000e+01 0.0000e+00 -1.0000e+00
       24  1    1    2    0    0 +9.7189425408e+03 -2.4342606298e+02 +1.3797426458e+03 9.8197333364e+03 7.9829010000e+01 0.0000e+00 -1.0000e+00
       22  1    1    2    0    0 -1.1411384060e+03 +8.0691950118e+02 +1.2448106539e+01 1.3976662329e+03 0.0000000000e+00 0.0000e+00 1.0000e+00
       22  1    1    2    0    0 -8.4064462478e+03 -4.1906789909e+02 -1.4426129225e+03 8.5396187541e+03 0.0000000000e+00 0.0000e+00 -1.0000e+00
</event>
<event>
 6      1 +1.4834189e-01 1.02009300e+04 7.81653100e-03 6.92673400e-02
  1000022 -1    0    0    0    0 +0.0000000000e+00 +0.0000000000e+00 +4.4721471353e+01 1.0000100000e+04 1.0000000000e+04 0.0000e+00 -1.0000e+00
  1000022 -1    0    0    0    0 -0.0000000000e+00 -0.0000000000e+00 -4.4721471353e+01 1.0000100000e+04 1.0000000000e+04 0.0000e+00 -1.0000e+00
      -24  1    1    2    0    0 +9.3078255814e+02 -4.0922722248e+02 +9.7460497127e+03 9.7992693995e+03 7.9829010000e+01 0.0000e+00 -1.0000e+00
       24  1    1    2    0    0 -1.4028988938e+03 -3.0560851725e+02 -7.6917889261e+03 7.8250566405e+03 7.9829010000e+01 0.0000e+00 -1.0000e+00
       22  1    1    2    0    0 -2.9641989429e+01 -1.1054667258e+02 -9.9895657706e+00 1.1488692607e+02 0.0000000000e+00 0.0000e+00 -1.0000e+00
       22  1    1    2    0    0 +5.0175832513e+02 +8.2538241231e+02 -2.0442712208e+03 2.2609870339e+03 0.0000000000e+00 0.0000e+00 -1.0000e+00
</event>
<event>
 6      1 +1.4834189e-01 1.00069600e+04 7.81653100e-03 6.93830500e-02
  1000022 -1    0    0    0    0 +0.0000000000e+00 +0.0000000000e+00 +4.4721471353e+01 1.0000100000e+04 1.0000000000e+04 0.0000e+00 1.0000e+00
  1000022 -1    0    0    0    0 -0.0000000000e+00 -0.0000000000e+00 -4.4721471353e+01 1.0000100000e+04 1.0000000000e+04 0.0000e+00 1.0000e+00
      -24  1    1    2    0    0 +1.6265055374e+02 +2.9671597411e+02 -2.0214289610e+02 4.0215667744e+02 7.9829010000e+01 0.0000e+00 -1.0000e+00
       24  1    1    2    0    0 -1.6744666730e+03 -5.7469026609e+03 +4.8872395847e+03 7.7280147685e+03 7.9829010000e+01 0.0000e+00 1.0000e+00
       22  1    1    2    0    0 -4.6259078508e+01 -1.6559729088e+03 +1.5649994078e+03 2.2789491709e+03 0.0000000000e+00 0.0000e+00 -1.0000e+00
       22  1    1    2    0    0 +1.5580751977e+03 +7.1061595956e+03 -6.2500960964e+03 9.5910793832e+03 0.0000000000e+00 0.0000e+00 1.0000e+00
</event>
<event>
 6      1 +1.4834189e-01 1.00727200e+04 7.81653100e-03 6.93435300e-02
  1000022 -1    0    0    0    0 +0.0000000000e+00 +0.0000000000e+00 +4.4721471353e+01 1.0000100000e+04 1.0000000000e+04 0.0000e+00 -1.0000e+00
  1000022 -1    0    0    0    0 -0.0000000000e+00 -0.0000000000e+00 -4.4721471353e+01 1.0000100000e+04 1.0000000000e+04 0.0000e+00 -1.0000e+00
      -24  1    1    2    0    0 -1.5111530962e+03 -2.4082203344e+03 +7.6219087506e+03 8.1352919144e+03 7.9829010000e+01 0.0000e+00 -1.0000e+00
       24  1    1    2    0    0 +1.2608829982e+02 +7.8695755132e+01 -2.7602602558e+02 3.2350319761e+02 7.9829010000e+01 0.0000e+00 0.0000e+00
       22  1    1    2    0    0 +1.8147066604e+03 +2.0266382139e+03 -9.2106383093e+03 9.6039721354e+03 0.0000000000e+00 0.0000e+00 -1.0000e+00
       22  1    1    2    0    0 -4.2964186404e+02 +3.0288636540e+02 +1.8647555843e+03 1.9374327526e+03 0.0000000000e+00 0.0000e+00 -1.0000e+00
</event>
<event>
 6      1 +1.4834189e-01 1.00378400e+04 7.81653100e-03 6.93644600e-02
  1000022 -1    0    0    0    0 +0.0000000000e+00 +0.0000000000e+00 +4.4721471353e+01 1.0000100000e+04 1.0000000000e+04 0.0000e+00 1.0000e+00
  1000022 -1    0    0    0    0 -0.0000000000e+00 -0.0000000000e+00 -4.4721471353e+01 1.0000100000e+04 1.0000000000e+04 0.0000e+00 1.0000e+00
      -24  1    1    2    0    0 -6.1040792825e+02 -2.3142877193e+03 -3.5454555281e+03 4.2784521803e+03 7.9829010000e+01 0.0000e+00 -1.0000e+00
       24  1    1    2    0    0 +1.6601617382e+03 +5.4559448110e+03 +8.1681581112e+03 9.9623616868e+03 7.9829010000e+01 0.0000e+00 -1.0000e+00
       22  1    1    2    0    0 -7.4277032891e+01 -3.1317056567e+01 +2.3294394270e+01 8.3907475540e+01 0.0000000000e+00 0.0000e+00 -1.0000e+00
       22  1    1    2    0    0 -9.7547677707e+02 -3.1103400352e+03 -4.6459969774e+03 5.6754786574e+03 0.0000000000e+00 0.0000e+00 -1.0000e+00
</event>
<event>
 6      1 +1.4834189e-01 1.01537500e+04 7.81653100e-03 6.92952400e-02
  1000022 -1    0    0    0    0 +0.0000000000e+00 +0.0000000000e+00 +4.4721471353e+01 1.0000100000e+04 1.0000000000e+04 0.0000e+00 -1.0000e+00
  1000022 -1    0    0    0    0 -0.0000000000e+00 -0.0000000000e+00 -4.4721471353e+01 1.0000100000e+04 1.0000000000e+04 0.0000e+00 -1.0000e+00
      -24  1    1    2    0    0 -8.3415925927e+03 +1.1083196370e+02 -1.1685430745e+03 8.4241507759e+03 7.9829010000e+01 0.0000e+00 1.0000e+00
       24  1    1    2    0    0 +9.7985865832e+03 -7.9768927533e+02 +5.4545737502e+02 9.8464462436e+03 7.9829010000e+01 0.0000e+00 1.0000e+00
       22  1    1    2    0    0 -1.4467301278e+03 +6.8724294567e+02 +6.2474886801e+02 1.7191980913e+03 0.0000000000e+00 0.0000e+00 1.0000e+00
       22  1    1    2    0    0 -1.0263862633e+01 -3.8563403652e-01 -1.6631685235e+00 1.0404889201e+01 0.0000000000e+00 0.0000e+00 1.0000e+00
</event>
<event>
 6      1 +1.4834189e-01 1.00175600e+04 7.81653100e-03 6.93766600e-02
  1000022 -1    0    0    0    0 +0.0000000000e+00 +0.0000000000e+00 +4.4721471353e+01 1.0000100000e+04 1.0000000000e+04 0.0000e+00 1.0000e+00
  1000022 -1    0    0    0    0 -0.0000000000e+00 -0.0000000000e+00 -4.4721471353e+01 1.0000100000e+04 1.0000000000e+04 0.0000e+00 1.0000e+00
      -24  1    1    2    0    0 -4.0726171044e+03 -3.2719574932e+03 +8.5061578879e+03 9.9826354537e+03 7.9829010000e+01 0.0000e+00 -1.0000e+00
       24  1    1    2    0    0 +3.7511146228e+03 +3.1425755469e+03 -7.8228097599e+03 9.2276414751e+03 7.9829010000e+01 0.0000e+00 -1.0000e+00
       22  1    1    2    0    0 +1.9619506384e+02 +1.7086148616e+02 -3.9749532642e+02 4.7506703217e+02 0.0000000000e+00 0.0000e+00 1.0000e+00
       22  1    1    2    0    0 +1.2530741778e+02 -4.1479539838e+01 -2.8585280154e+02 3.1485603905e+02 0.0000000000e+00 0.0000e+00 -1.0000e+00
</event>
<event>
 6      1 +1.4834189e-01 1.00216600e+04 7.81653100e-03 6.93741900e-02
  1000022 -1    0    0    0    0 +0.0000000000e+00 +0.0000000000e+00 +4.4721471353e+01 1.0000100000e+04 1.0000000000e+04 0.0000e+00 1.0000e+00
  1000022 -1    0    0    0    0 -0.0000000000e+00 -0.0000000000e+00 -4.4721471353e+01 1.0000100000e+04 1.0000000000e+04 0.0000e+00 1.0000e+00
      -24  1    1    2    0    0 +1.9167510255e+02 -1.9756502902e+02 -1.8644376628e+02 3.4191407466e+02 7.9829010000e+01 0.0000e+00 0.0000e+00
       24  1    1    2    0    0 -8.5320699012e+03 +2.5006320334e+03 +4.2870720132e+03 9.8709035292e+03 7.9829010000e+01 0.0000e+00 -1.0000e+00
       22  1    1    2    0    0 +8.4214527808e+03 -2.3494900277e+03 -4.1541024484e+03 9.6797488336e+03 0.0000000000e+00 0.0000e+00 -1.0000e+00
       22  1    1    2    0    0 -8.1057982105e+01 +4.6423023317e+01 +5.3474201504e+01 1.0763356253e+02 0.0000000000e+00 0.0000e+00 1.0000e+00
</event>
<event>
 6      1 +1.4834189e-01 1.00055400e+04 7.81653100e-03 6.93839100e-02
  1000022 -1    0    0    0    0 +0.0000000000e+00 +0.0000000000e+00 +4.4721471353e+01 1.0000100000e+04 1.0000000000e+04 0.0000e+00 -1.0000e+00
  1000022 -1    0    0    0    0 -0.0000000000e+00 -0.0000000000e+00 -4.4721471353e+01 1.0000100000e+04 1.0000000000e+04 0.0000e+00 -1.0000e+00
      -24  1    1    2    0    0 +9.2156281434e+02 -5.7439820337e+03 +6.5847107584e+03 8.7867739283e+03 7.9829010000e+01 0.0000e+00 -1.0000e+00
       24  1    1    2    0    0 -1.2041500700e+03 +6.5364099123e+03 -7.3779668249e+03 9.9305286402e+03 7.9829010000e+01 0.0000e+00 -1.0000e+00
       22  1    1    2    0    0 -9.5529446781e-01 +4.7084477581e+01 -4.3531360851e+01 6.4131427507e+01 0.0000000000e+00 0.0000e+00 -1.0000e+00
       22  1    1    2    0    0 +2.8354255015e+02 -8.3951235620e+02 +8.3678742739e+02 1.2187660040e+03 0.0000000000e+00 0.0000e+00 -1.0000e+00
</event>
<event>
 6      1 +1.4834189e-01 1.03117600e+04 7.81653100e-03 6.92023800e-02
  1000022 -1    0    0    0    0 +0.0000000000e+00 +0.0000000000e+00 +4.4721471353e+01 1.0000100000e+04 1.0000000000e+04 0.0000e+00 -1.0000e+00
  1000022 -1    0    0    0    0 -0.0000000000e+00 -0.0000000000e+00 -4.4721471353e+01 1.0000100000e+04 1.0000000000e+04 0.0000e+00 -1.0000e+00
      -24  1    1    2    0    0 -5.0414911478e+02 +9.6704751602e+03 -2.9526164294e+02 9.6884368328e+03 7.9829010000e+01 0.0000e+00 -1.0000e+00
       24  1    1    2    0    0 -5.4168906036e+02 -4.0570774808e+03 -1.0571693856e+03 4.2281537938e+03 7.9829010000e+01 0.0000e+00 -1.0000e+00
       22  1    1    2    0    0 +6.2456538851e+02 -5.2202802378e+03 +1.5386955980e+03 5.4780463515e+03 0.0000000000e+00 0.0000e+00 -1.0000e+00
       22  1    1    2    0    0 +4.2127278663e+02 -3.9311744165e+02 -1.8626456946e+02 6.0556302192e+02 0.0000000000e+00 0.0000e+00 -1.0000e+00
</event>
<event>
 6      1 +1.4834189e-01 1.00652500e+04 7.81653100e-03 6.93480100e-02
  1000022 -1    0    0    0    0 +0.0000000000e+00 +0.0000000000e+00 +4.4721471353e+01 1.0000100000e+04 1.0000000000e+04 0.0000e+00 -1.0000e+00
  1000022 -1    0    0    0    0 -0.0000000000e+00 -0.0000000000e+00 -4.4721471353e+01 1.0000100000e+04 1.0000000000e+04 0.0000e+00 -1.0000e+00
      -24  1    1    2    0    0 +9.3131757730e+03 -1.1026033595e+03 +4.3602063068e+01 9.3786593369e+03 7.9829010000e+01 0.0000e+00 1.0000e+00
       24  1    1    2    0    0 -9.8529610709e+03 +1.2706850349e+03 +3.8363273911e+01 9.9349547928e+03 7.9829010000e+01 0.0000e+00 1.0000e+00
       22  1    1    2    0    0 +5.5141925053e+02 -5.8770203158e+01 -8.9439358134e+00 5.5461438912e+02 0.0000000000e+00 0.0000e+00 -1.0000e+00
       22  1    1    2    0    0 -1.1633952590e+01 -1.0931147232e+02 -7.3021401165e+01 1.3197148124e+02 0.0000000000e+00 0.0000e+00 1.0000e+00
</event>
<event>
 6      1 +1.4834189e-01 1.00045500e+04 7.81653100e-03 6.93845100e-02
  1000022 -1    0    0    0    0 +0.0000000000e+00 +0.0000000000e+00 +4.4721471353e+01 1.0000100000e+04 1.0000000000e+04 0.0000e+00 -1.0000e+00
  1000022 -1    0    0    0    0 -0.0000000000e+00 -0.0000000000e+00 -4.4721471353e+01 1.0000100000e+04 1.0000000000e+04 0.0000e+00 -1.0000e+00
      -24  1    1    2    0    0 +1.9948367464e+03 -2.0481002850e+03 +1.5884957065e+03 3.2716631402e+03 7.9829010000e+01 0.0000e+00 0.0000e+00
       24  1    1    2    0    0 -5.5241941383e+03 +6.5305638537e+03 -5.1272872075e+03 9.9729851050e+03 7.9829010000e+01 0.0000e+00 1.0000e+00
       22  1    1    2    0    0 -6.5121763465e-01 +1.9979837592e+01 -1.0684848685e+01 2.2666803613e+01 0.0000000000e+00 0.0000e+00 -1.0000e+00
       22  1    1    2    0    0 +3.5300086095e+03 -4.5024434063e+03 +3.5494763497e+03 6.7328849513e+03 0.0000000000e+00 0.0000e+00 1.0000e+00
</event>
<event>
 6      1 +1.4834189e-01 1.00159400e+04 7.81653100e-03 6.93776400e-02
  1000022 -1    0    0    0    0 +0.0000000000e+00 +0.0000000000e+00 +4.4721471353e+01 1.0000100000e+04 1.0000000000e+04 0.0000e+00 1.0000e+00
  1000022 -1    0    0    0    0 -0.0000000000e+00 -0.0000000000e+00 -4.4721471353e+01 1.0000100000e+04 1.0000000000e+04 0.0000e+00 1.0000e+00
      -24  1    1    2    0    0 +2.7338130675e+03 +8.2493279502e+03 -4.7664189271e+03 9.9121272983e+03 7.9829010000e+01 0.0000e+00 1.0000e+00
       24  1    1    2    0    0 -2.7405376018e+03 -8.3388013084e+03 +4.7573970991e+03 9.9842552771e+03 7.9829010000e+01 0.0000e+00 1.0000e+00
       22  1    1    2    0    0 +1.9281178338e+01 +7.5039349099e+01 -8.4143727479e+00 7.7932467047e+01 0.0000000000e+00 0.0000e+00 -1.0000e+00
       22  1    1    2    0    0 -1.2556644082e+01 +1.4434009143e+01 +1.7436200819e+01 2.5884957592e+01 0.0000000000e+00 0.0000e+00 -1.0000e+00
</event>
<event>
 6      1 +1.4834189e-01 1.00048900e+04 7.81653100e-03 6.93843000e-02
  1000022 -1    0    0    0    0 +0.0000000000e+00 +0.0000000000e+00 +4.4721471353e+01 1.0000100000e+04 1.0000000000e+04 0.0000e+00 -1.0000e+00
  1000022 -1    0    0    0    0 -0.0000000000e+00 -0.0000000000e+00 -4.4721471353e+01 1.0000100000e+04 1.0000000000e+04 0.0000e+00 -1.0000e+00
      -24  1    1    2    0    0 +1.4535837706e+02 +1.1694913578e+02 +9.2428578503e+01 2.2298401535e+02 7.9829010000e+01 0.0000e+00 -1.0000e+00
       24  1    1    2    0    0 -5.4738174788e+03 -6.4738181307e+03 -4.7073045630e+03 9.6973237494e+03 7.9829010000e+01 0.0000e+00 1.0000e+00
       22  1    1    2    0    0 -1.0524805507e+02 -2.1844547560e+02 -1.7320689443e+02 2.9798692452e+02 0.0000000000e+00 0.0000e+00 -1.0000e+00
       22  1    1    2    0    0 +5.4337071568e+03 +6.5753144705e+03 +4.7880828789e+03 9.7819053107e+03 0.0000000000e+00 0.0000e+00 1.0000e+00
</event>
<event>
 6      1 +1.4834189e-01 1.00117300e+04 7.81653100e-03 6.93801700e-02
  1000022 -1    0    0    0    0 +0.0000000000e+00 +0.0000000000e+00 +4.4721471353e+01 1.0000100000e+04 1.0000000000e+04 0.0000e+00 1.0000e+00
  1000022 -1    0    0    0    0 -0.0000000000e+00 -0.0000000000e+00 -4.4721471353e+01 1.0000100000e+04 1.0000000000e+04 0.0000e+00 1.0000e+00
      -24  1    1    2    0    0 +5.9625234931e+03 +1.8618987657e+03 +6.8892805534e+03 9.2998340111e+03 7.9829010000e+01 0.0000e+00 1.0000e+00
       24  1    1    2    0    0 -5.8202759473e+03 -1.5722516510e+03 -6.8986700816e+03 9.1621836329e+03 7.9829010000e+01 0.0000e+00 1.0000e+00
       22  1    1    2    0    0 +4.0079412884e+02 +6.8558529465e+01 +5.5576821427e+02 6.8863235014e+02 0.0000000000e+00 0.0000e+00 1.0000e+00
       22  1    1    2    0    0 -5.4304167471e+02 -3.5820564417e+02 -5.4637868598e+02 8.4955000588e+02 0.0000000000e+00 0.0000e+00 -1.0000e+00
</event>
<event>
 6      1 +1.4834189e-01 1.00050500e+04 7.81653100e-03 6.93842100e-02
  1000022 -1    0    0    0    0 +0.0000000000e+00 +0.0000000000e+00 +4.4721471353e+01 1.0000100000e+04 1.0000000000e+04 0.0000e+00 -1.0000e+00
  1000022 -1    0    0    0    0 -0.0000000000e+00 -0.0000000000e+00 -4.4721471353e+01 1.0000100000e+04 1.0000000000e+04 0.0000e+00 -1.0000e+00
      -24  1    1    2    0    0 -3.4587354470e+03 +5.0973958215e+03 -7.8708540589e+03 9.9951493906e+03 7.9829010000e+01 0.0000e+00 -1.0000e+00
       24  1    1    2    0    0 +8.1513716496e+02 -1.2368444145e+03 +1.9062761230e+03 2.4154697330e+03 7.9829010000e+01 0.0000e+00 0.0000e+00
       22  1    1    2    0    0 +4.4970635584e+01 -7.4399700105e+00 +5.4618085947e+01 7.1139627010e+01 0.0000000000e+00 0.0000e+00 -1.0000e+00
       22  1    1    2    0    0 +2.5986276464e+03 -3.8531114370e+03 +5.9099598500e+03 7.5184412493e+03 0.0000000000e+00 0.0000e+00 -1.0000e+00
</event>
<event>
 6      1 +1.4834189e-01 1.00047300e+04 7.81653100e-03 6.93844000e-02
  1000022 -1    0    0    0    0 +0.0000000000e+00 +0.0000000000e+00 +4.4721471353e+01 1.0000100000e+04 1.0000000000e+04 0.0000e+00 1.0000e+00
  1000022 -1    0    0    0    0 -0.0000000000e+00 -0.0000000000e+00 -4.4721471353e+01 1.0000100000e+04 1.0000000000e+04 0.0000e+00 1.0000e+00
      -24  1    1    2    0    0 -8.6535998177e+03 -2.5399145215e+03 -1.8920207736e+03 9.2153171872e+03 7.9829010000e+01 0.0000e+00 1.0000e+00
       24  1    1    2    0    0 +9.2449145353e+03 +2.6111891397e+03 +2.0875269046e+03 9.8311186920e+03 7.9829010000e+01 0.0000e+00 1.0000e+00
       22  1    1    2    0    0 -7.4759927783e+02 -1.1014897719e+02 -2.2831740149e+02 7.8940883781e+02 0.0000000000e+00 0.0000e+00 -1.0000e+00
       22  1    1    2    0    0 +1.5628456028e+02 +3.8874358955e+01 +3.2811270560e+01 1.6435528298e+02 0.0000000000e+00 0.0000e+00 1.0000e+00
</event>
<event>
 6      1 +1.4834189e-01 1.03774500e+04 7.81653100e-03 6.91642600e-02
  1000022 -1    0    0    0    0 +0.0000000000e+00 +0.0000000000e+00 +4.4721471353e+01 1.0000100000e+04 1.0000000000e+04 0.0000e+00 1.0000e+00
  1000022 -1    0    0    0    0 -0.0000000000e+00 -0.0000000000e+00 -4.4721471353e+01 1.0000100000e+04 1.0000000000e+04 0.0000e+00 1.0000e+00
      -24  1    1    2    0    0 -6.1157266953e+03 +1.8444300115e+03 +9.2278784603e+02 6.4546065069e+03 7.9829010000e+01 0.0000e+00 1.0000e+00
       24  1    1    2    0    0 +8.4290302175e+03 -4.2019326754e+03 -1.9713403573e+03 9.6227513784e+03 7.9829010000e+01 0.0000e+00 1.0000e+00
       22  1    1    2    0    0 -2.2716030352e+03 +1.5324937084e+03 +2.1392514584e+02 2.7485416649e+03 0.0000000000e+00 0.0000e+00 1.0000e+00
       22  1    1    2    0    0 -4.1700486950e+01 +8.2500895547e+02 +8.3462736541e+02 1.1743004498e+03 0.0000000000e+00 0.0000e+00 1.0000e+00
</event>
<event>
 6      1 +1.4834189e-01 1.00017400e+04 7.81653100e-03 6.93862000e-02
  1000022 -1    0    0    0    0 +0.0000000000e+00 +0.0000000000e+00 +4.4721471353e+01 1.0000100000e+04 1.0000000000e+04 0.0000e+00 1.0000e+00
  1000022 -1    0    0    0    0 -0.0000000000e+00 -0.0000000000e+00 -4.4721471353e+01 1.0000100000e+04 1.0000000000e+04 0.0000e+00 1.0000e+00
      -24  1    1    2    0    0 -4.7167939290e+03 -4.4052105134e+03 -7.3618964726e+03 9.7907056426e+03 7.9829010000e+01 0.0000e+00 1.0000e+00
       24  1    1    2    0    0 +3.8223797013e+03 +3.6819176482e+03 +5.9454727238e+03 7.9700767079e+03 7.9829010000e+01 0.0000e+00 1.0000e+00
       22  1    1    2    0    0 +9.8766209995e+02 +8.2164090292e+02 +1.5738809410e+03 2.0316671512e+03 0.0000000000e+00 0.0000e+00 -1.0000e+00
       22  1    1    2    0    0 -9.3247872164e+01 -9.8348037748e+01 -1.5745719217e+02 2.0775049833e+02 0.0000000000e+00 0.0000e+00 -1.0000e+00
</event>
<event>
 6      1 +1.4834189e-01 1.00054700e+04 7.81653100e-03 6.93839500e-02
  1000022 -1    0    0    0    0 +0.0000000000e+00 +0.0000000000e+00 +4.4721471353e+01 1.0000100000e+04 1.0000000000e+04 0.0000e+00 1.0000e+00
  1000022 -1    0    0    0    0 -0.0000000000e+00 -0.0000000000e+00 -4.4721471353e+01 1.0000100000e+04 1.0000000000e+04 0.0000e+00 1.0000e+00
      -24  1    1    2    0    0 -1.2122884841e+03 -5.4107682205e+03 +7.9981644030e+03 9.7325773869e+03 7.9829010000e+01 0.0000e+00 1.0000e+00
       24  1    1    2    0    0 +1.2909022293e+03 +5.4637421750e+03 -8.1518518408e+03 9.8983821015e+03 7.9829010000e+01 0.0000e+00 1.0000e+00
       22  1    1    2    0    0 -9.8299663017e+01 -1.0703385069e+02 +2.3097562582e+02 2.7288973719e+02 0.0000000000e+00 0.0000e+00 -1.0000e+00
       22  1    1    2    0    0 +1.9685917766e+01 +5.4059896214e+01 -7.7288187937e+01 9.6350774421e+01 0.0000000000e+00 0.0000e+00 1.0000e+00
</event>
<event>
 6      1 +1.4834189e-01 1.02580100e+04 7.81653100e-03 6.92337800e-02
  1000022 -1    0    0    0    0 +0.0000000000e+00 +0.0000000000e+00 +4.4721471353e+01 1.0000100000e+04 1.0000000000e+04 0.0000e+00 -1.0000e+00
  1000022 -1    0    0    0    0 -0.0000000000e+00 -0.0000000000e+00 -4.4721471353e+01 1.0000100000e+04 1.0000000000e+04 0.0000e+00 -1.0000e+00
      -24  1    1    2    0    0 +3.3218939676e+03 -7.7057883920e+03 +2.6681808636e+03 8.8056638629e+03 7.9829010000e+01 0.0000e+00 1.0000e+00
       24  1    1    2    0    0 +2.3823587947e+01 +4.0882224532e+03 -1.8564799889e+03 4.4907706477e+03 7.9829010000e+01 0.0000e+00 1.0000e+00
       22  1    1    2    0    0 +9.5814871466e+01 -9.3059867735e+02 +4.3366798982e+01 9.3652285991e+02 0.0000000000e+00 0.0000e+00 1.0000e+00
       22  1    1    2    0    0 -3.4415324270e+03 +4.5481646161e+03 -8.5506767374e+02 5.7672426296e+03 0.0000000000e+00 0.0000e+00 1.0000e+00
</event>
<event>
 6      1 +1.4834189e-01 1.04039900e+04 7.81653100e-03 6.91489400e-02
  1000022 -1    0    0    0    0 +0.0000000000e+00 +0.0000000000e+00 +4.4721471353e+01 1.0000100000e+04 1.0000000000e+04 0.0000e+00 -1.0000e+00
  1000022 -1    0    0    0    0 -0.0000000000e+00 -0.0000000000e+00 -4.4721471353e+01 1.0000100000e+04 1.0000000000e+04 0.0000e+00 -1.0000e+00
      -24  1    1    2    0    0 +3.3714061847e+02 -9.2100778752e+03 -1.0894885448e+03 9.2807626962e+03 7.9829010000e+01 0.0000e+00 1.0000e+00
       24  1    1    2    0    0 -2.0992940735e+03 +3.6613493016e+03 +3.2958832957e+02 4.2340896841e+03 7.9829010000e+01 0.0000e+00 1.0000e+00
       22  1    1    2    0    0 +1.7529679063e+03 +5.8624595393e+03 +7.9143253657e+02 6.1699022512e+03 0.0000000000e+00 0.0000e+00 1.0000e+00
       22  1    1    2    0    0 +9.1855486563e+00 -3.1373096571e+02 -3.1532321356e+01 3.1544536839e+02 0.0000000000e+00 0.0000e+00 -1.0000e+00
</event>
<event>
 6      1 +1.4834189e-01 1.10119900e+04 7.81653100e-03 6.88100700e-02
  1000022 -1    0    0    0    0 +0.0000000000e+00 +0.0000000000e+00 +4.4721471353e+01 1.0000100000e+04 1.0000000000e+04 0.0000e+00 1.0000e+00
  1000022 -1    0    0    0    0 -0.0000000000e+00 -0.0000000000e+00 -4.4721471353e+01 1.0000100000e+04 1.0000000000e+04 0.0000e+00 1.0000e+00
      -24  1    1    2    0    0 +7.3599517587e+03 -4.8236718836e+03 -5.5058096159e+02 8.8173812664e+03 7.9829010000e+01 0.0000e+00 1.0000e+00
       24  1    1    2    0    0 -8.0332362520e+03 +2.8141021223e+03 +8.3591801913e+02 8.5531974747e+03 7.9829010000e+01 0.0000e+00 1.0000e+00
       22  1    1    2    0    0 -4.1359255710e+02 +1.3013401453e+02 +3.5199140332e+01 4.3500878670e+02 0.0000000000e+00 0.0000e+00 -1.0000e+00
       22  1    1    2    0    0 +1.0868770505e+03 +1.8794357468e+03 -3.2053619788e+02 2.1946124722e+03 0.0000000000e+00 0.0000e+00 -1.0000e+00
</event>
<event>
 6      1 +1.4834189e-01 1.00024900e+04 7.81653100e-03 6.93857500e-02
  1000022 -1    0    0    0    0 +0.0000000000e+00 +0.0000000000e+00 +4.4721471353e+01 1.0000100000e+04 1.0000000000e+04 0.0000e+00 1.0000e+00
  1000022 -1    0    0    0    0 -0.0000000000e+00 -0.0000000000e+00 -4.4721471353e+01 1.0000100000e+04 1.0000000000e+04 0.0000e+00 1.0000e+00
      -24  1    1    2    0    0 -6.8066199885e+03 +2.6948736155e+03 -6.7605603828e+03 9.9651376725e+03 7.9829010000e+01 0.0000e+00 1.0000e+00
       24  1    1    2    0    0 +6.8289778309e+03 -2.6712281045e+03 +6.7743337049e+03 9.9834046105e+03 7.9829010000e+01 0.0000e+00 1.0000e+00
       22  1    1    2    0    0 +5.3234964059e-01 -1.7101539413e+01 +8.4564487447e+00 1.9085533050e+01 0.0000000000e+00 0.0000e+00 -1.0000e+00
       22  1    1    2    0    0 -2.2890192100e+01 -6.5439715542e+00 -2.2229770799e+01 3.2572183959e+01 0.0000000000e+00 0.0000e+00 1.0000e+00
</event>
<event>
 6      1 +1.4834189e-01 1.00043000e+04 7.81653100e-03 6.93846600e-02
  1000022 -1    0    0    0    0 +0.0000000000e+00 +0.0000000000e+00 +4.4721471353e+01 1.0000100000e+04 1.0000000000e+04 0.0000e+00 -1.0000e+00
  1000022 -1    0    0    0    0 -0.0000000000e+00 -0.0000000000e+00 -4.4721471353e+01 1.0000100000e+04 1.0000000000e+04 0.0000e+00 -1.0000e+00
      -24  1    1    2    0    0 +4.0569657864e+03 +8.4512313813e+03 -1.9414250546e+03 9.5738073495e+03 7.9829010000e+01 0.0000e+00 1.0000e+00
       24  1    1    2    0    0 -4.2446596333e+03 -8.8203391992e+03 +2.0238654367e+03 9.9958953060e+03 7.9829010000e+01 0.0000e+00 1.0000e+00
       22  1    1    2    0    0 +1.7556142070e+02 +3.6666515000e+02 -6.9203875677e+01 4.1237643128e+02 0.0000000000e+00 0.0000e+00 1.0000e+00
       22  1    1    2    0    0 +1.2132426241e+01 +2.4426679672e+00 -1.3236506491e+01 1.8120913260e+01 0.0000000000e+00 0.0000e+00 -1.0000e+00
</event>
<event>
 6      1 +1.4834189e-01 1.00342200e+04 7.81653100e-03 6.93666300e-02
  1000022 -1    0    0    0    0 +0.0000000000e+00 +0.0000000000e+00 +4.4721471353e+01 1.0000100000e+04 1.0000000000e+04 0.0000e+00 1.0000e+00
  1000022 -1    0    0    0    0 -0.0000000000e+00 -0.0000000000e+00 -4.4721471353e+01 1.0000100000e+04 1.0000000000e+04 0.0000e+00 1.0000e+00
      -24  1    1    2    0    0 -1.3089121026e+02 +4.8384049034e+03 +2.0335209320e+03 5.2506070668e+03 7.9829010000e+01 0.0000e+00 -1.0000e+00
       24  1    1    2    0    0 -1.1206714490e+02 -5.2699788251e+03 -2.9530175963e+03 6.0425095330e+03 7.9829010000e+01 0.0000e+00 1.0000e+00
       22  1    1    2    0    0 -7.2901212292e+02 +4.0431266565e+03 +2.3143889386e+03 4.7153714588e+03 0.0000000000e+00 0.0000e+00 1.0000e+00
       22  1    1    2    0    0 +9.7197047809e+02 -3.6115527348e+03 -1.3948922743e+03 3.9917119414e+03 0.0000000000e+00 0.0000e+00 1.0000e+00
</event>
<event>
 6      1 +1.4834189e-01 1.00015500e+04 7.81653100e-03 6.93863200e-02
  1000022 -1    0    0    0    0 +0.0000000000e+00 +0.0000000000e+00 +4.4721471353e+01 1.0000100000e+04 1.0000000000e+04 0.0000e+00 -1.0000e+00
  1000022 -1    0    0    0    0 -0.0000000000e+00 -0.0000000000e+00 -4.4721471353e+01 1.0000100000e+04 1.0000000000e+04 0.0000e+00 -1.0000e+00
      -24  1    1    2    0    0 -4.8523163002e+03 -4.1223429160e+03 +7.4444752900e+03 9.7961864829e+03 7.9829010000e+01 0.0000e+00 -1.0000e+00
       24  1    1    2    0    0 +4.9173843944e+03 +4.1523578522e+03 -7.5133970048e+03 9.8934449125e+03 7.9829010000e+01 0.0000e+00 -1.0000e+00
       22  1    1    2    0    0 -9.6428968594e+01 -8.6489375229e+01 +1.5560393573e+02 2.0246368273e+02 0.0000000000e+00 0.0000e+00 -1.0000e+00
       22  1    1    2    0    0 +3.1360874438e+01 +5.6474439012e+01 -8.6682220894e+01 1.0810492184e+02 0.0000000000e+00 0.0000e+00 -1.0000e+00
</event>
<event>
 6      1 +1.4834189e-01 4.98724500e+03 7.81653100e-03 7.38629000e-02
  1000022 -1    0    0    0    0 +0.0000000000e+00 +0.0000000000e+00 +4.4721471353e+01 1.0000100000e+04 1.0000000000e+04 0.0000e+00 -1.0000e+00
  1000022 -1    0    0    0    0 -0.0000000000e+00 -0.0000000000e+00 -4.4721471353e+01 1.0000100000e+04 1.0000000000e+04 0.0000e+00 -1.0000e+00
      -24  1    1    2    0    0 +1.9158428842e+03 +1.6205941296e+03 -4.1516727834e+03 4.8517562656e+03 7.9829010000e+01 0.0000e+00 -1.0000e+00
       24  1    1    2    0    0 +1.8207346296e+03 -2.1637234246e+03 +6.4626270238e+03 7.0546930740e+03 7.9829010000e+01 0.0000e+00 -1.0000e+00
       22  1    1    2    0    0 -2.0679439734e+03 -2.5564418331e+03 -3.0634334356e+03 4.4940417819e+03 0.0000000000e+00 0.0000e+00 -1.0000e+00
       22  1    1    2    0    0 -1.6686335404e+03 +3.0995711281e+03 +7.5247919525e+02 3.5997088784e+03 0.0000000000e+00 0.0000e+00 -1.0000e+00
</event>
<event>
 6      1 +1.4834189e-01 1.02011800e+04 7.81653100e-03 6.92671900e-02
  1000022 -1    0    0    0    0 +0.0000000000e+00 +0.0000000000e+00 +4.4721471353e+01 1.0000100000e+04 1.0000000000e+04 0.0000e+00 -1.0000e+00
  1000022 -1    0    0    0    0 -0.0000000000e+00 -0.0000000000e+00 -4.4721471353e+01 1.0000100000e+04 1.0000000000e+04 0.0000e+00 -1.0000e+00
      -24  1    1    2    0    0 -3.7574064652e+02 +4.5069930390e+03 -8.1521188855e+03 9.3229599528e+03 7.9829010000e+01 0.0000e+00 1.0000e+00
       24  1    1    2    0    0 -4.5785155770e+02 -2.9155215420e+03 +7.5305843702e+03 8.0886319942e+03 7.9829010000e+01 0.0000e+00 1.0000e+00
       22  1    1    2    0    0 -3.7658451705e+02 -1.0746174345e+02 -2.7068160209e+02 4.7605929725e+02 0.0000000000e+00 0.0000e+00 1.0000e+00
       22  1    1    2    0    0 +1.2101767213e+03 -1.4840097536e+03 +8.9221611741e+02 2.1125487558e+03 0.0000000000e+00 0.0000e+00 1.0000e+00
</event>
<event>
 6      1 +1.4834189e-01 1.00195200e+04 7.81653100e-03 6.93754800e-02
  1000022 -1    0    0    0    0 +0.0000000000e+00 +0.0000000000e+00 +4.4721471353e+01 1.0000100000e+04 1.0000000000e+04 0.0000e+00 -1.0000e+00
  1000022 -1    0    0    0    0 -0.0000000000e+00 -0.0000000000e+00 -4.4721471353e+01 1.0000100000e+04 1.0000000000e+04 0.0000e+00 -1.0000e+00
      -24  1    1    2    0    0 +5.3966054922e+03 -7.7580333056e+03 +3.2089147401e+03 9.9806782380e+03 7.9829010000e+01 0.0000e+00 1.0000e+00
       24  1    1    2    0    0 -4.9174370284e+03 +7.3518969686e+03 -2.8796736333e+03 9.3021754912e+03 7.9829010000e+01 0.0000e+00 1.0000e+00
       22  1    1    2    0    0 -7.7631932009e+01 +1.1243208078e+02 -4.2246175061e+01 1.4301198888e+02 0.0000000000e+00 0.0000e+00 -1.0000e+00
       22  1    1    2    0    0 -4.0153653183e+02 +2.9370425628e+02 -2.8699493170e+02 5.7433428190e+02 0.0000000000e+00 0.0000e+00 1.0000e+00
</event>
<event>
 6      1 +1.4834189e-01 1.02037400e+04 7.81653100e-03 6.92656900e-02
  1000022 -1    0    0    0    0 +0.0000000000e+00 +0.0000000000e+00 +4.4721471353e+01 1.0000100000e+04 1.0000000000e+04 0.0000e+00 1.0000e+00
  1000022 -1    0    0    0    0 -0.0000000000e+00 -0.0000000000e+00 -4.4721471353e+01 1.0000100000e+04 1.0000000000e+04 0.0000e+00 1.0000e+00
      -24  1    1    2    0    0 -2.7008954559e+03 -8.3142146778e+03 +3.6275210031e+03 9.4650030782e+03 7.9829010000e+01 0.0000e+00 -1.0000e+00
       24  1    1    2    0    0 +2.4138396303e+03 +7.5099591497e+03 -4.2119352347e+03 8.9427556873e+03 7.9829010000e+01 0.0000e+00 -1.0000e+00
       22  1    1    2    0    0 +5.3430240019e+02 +1.0159802992e+03 +5.2189466236e+02 1.2609794058e+03 0.0000000000e+00 0.0000e+00 1.0000e+00
       22  1    1    2    0    0 -2.4724657459e+02 -2.1172477113e+02 +6.2519569220e+01 3.3146182871e+02 0.0000000000e+00 0.0000e+00 1.0000e+00
</event>
<event>
 6      1 +1.4834189e-01 1.00007200e+04 7.81653100e-03 6.93868200e-02
  1000022 -1    0    0    0    0 +0.0000000000e+00 +0.0000000000e+00 +4.4721471353e+01 1.0000100000e+04 1.0000000000e+04 0.0000e+00 -1.0000e+00
  1000022 -1    0    0    0    0 -0.0000000000e+00 -0.0000000000e+00 -4.4721471353e+01 1.0000100000e+04 1.0000000000e+04 0.0000e+00 -1.0000e+00
      -24  1    1    2    0    0 +3.5447800628e+03 -2.2054731647e+03 -7.7956340513e+02 4.2477840514e+03 7.9829010000e+01 0.0000e+00 1.0000e+00
       24  1    1    2    0    0 -8.2512879705e+03 +5.2363395108e+03 +1.6914270061e+03 9.9181804093e+03 7.9829010000e+01 0.0000e+00 1.0000e+00
       22  1    1    2    0    0 +4.7718187697e+03 -3.0779282345e+03 -9.2323832569e+02 5.7529353893e+03 0.0000000000e+00 0.0000e+00 1.0000e+00
       22  1    1    2    0    0 -6.5310862014e+01 +4.7061888362e+01 +1.1374724748e+01 8.1300150039e+01 0.0000000000e+00 0.0000e+00 1.0000e+00
</event>
<event>
 6      1 +1.4834189e-01 1.00063100e+04 7.81653100e-03 6.93834500e-02
  1000022 -1    0    0    0    0 +0.0000000000e+00 +0.0000000000e+00 +4.4721471353e+01 1.0000100000e+04 1.0000000000e+04 0.0000e+00 -1.0000e+00
  1000022 -1    0    0    0    0 -0.0000000000e+00 -0.0000000000e+00 -4.4721471353e+01 1.0000100000e+04 1.0000000000e+04 0.0000e+00 -1.0000e+00
      -24  1    1    2    0    0 +1.4012498111e+03 -5.0390255362e+03 -8.5156454300e+03 9.9938915918e+03 7.9829010000e+01 0.0000e+00 1.0000e+00
       24  1    1    2    0    0 -6.5760643746e+02 +2.0163655073e+03 +3.5961440329e+03 4.1757395347e+03 7.9829010000e+01 0.0000e+00 1.0000e+00
       22  1    1    2    0    0 -7.5703502243e+02 +3.0156042402e+03 +4.9128382453e+03 5.8140304939e+03 0.0000000000e+00 0.0000e+00 1.0000e+00
       22  1    1    2    0    0 +1.3391648746e+01 +7.0557887134e+00 +6.6631517635e+00 1.6538379665e+01 0.0000000000e+00 0.0000e+00 1.0000e+00
</event>
<event>
 6      1 +1.4834189e-01 1.00374600e+04 7.81653100e-03 6.93646900e-02
  1000022 -1    0    0    0    0 +0.0000000000e+00 +0.0000000000e+00 +4.4721471353e+01 1.0000100000e+04 1.0000000000e+04 0.0000e+00 1.0000e+00
  1000022 -1    0    0    0    0 -0.0000000000e+00 -0.0000000000e+00 -4.4721471353e+01 1.0000100000e+04 1.0000000000e+04 0.0000e+00 1.0000e+00
      -24  1    1    2    0    0 +4.0126098573e+01 -9.2338783567e+01 +4.4089302979e+00 1.2856385278e+02 7.9829010000e+01 0.0000e+00 -1.0000e+00
       24  1    1    2    0    0 -5.1396242149e+03 +2.7683708364e+03 -7.2495258128e+03 9.3081475783e+03 7.9829010000e+01 0.0000e+00 -1.0000e+00
       22  1    1    2    0    0 +5.4500512601e+03 -2.8976772337e+03 +7.7515546498e+03 9.9088945689e+03 0.0000000000e+00 0.0000e+00 -1.0000e+00
       22  1    1    2    0    0 -3.5055314369e+02 +2.2164518086e+02 -5.0643776730e+02 6.5459400004e+02 0.0000000000e+00 0.0000e+00 -1.0000e+00
</event>
<event>
 6      1 +1.4834189e-01 1.08169400e+04 7.81653100e-03 6.89163400e-02
  1000022 -1    0    0    0    0 +0.0000000000e+00 +0.0000000000e+00 +4.4721471353e+01 1.0000100000e+04 1.0000000000e+04 0.0000e+00 1.0000e+00
  1000022 -1    0    0    0    0 -0.0000000000e+00 -0.0000000000e+00 -4.4721471353e+01 1.0000100000e+04 1.0000000000e+04 0.0000e+00 1.0000e+00
      -24  1    1    2    0    0 -5.4213313229e+03 -2.9397627200e+03 -6.7650583097e+03 9.1545302866e+03 7.9829010000e+01 0.0000e+00 1.0000e+00
       24  1    1    2    0    0 +5.7198680239e+03 +1.3299628835e+03 +6.9696809701e+03 9.1141931611e+03 7.9829010000e+01 0.0000e+00 1.0000e+00
       22  1    1    2    0    0 -3.4821666467e+02 +1.6058057710e+03 -2.5244190752e+02 1.6624060684e+03 0.0000000000e+00 0.0000e+00 -1.0000e+00
       22  1    1    2    0    0 +4.9679963681e+01 +3.9940655457e+00 +4.7819247136e+01 6.9070483910e+01 0.0000000000e+00 0.0000e+00 1.0000e+00
</event>
<event>
 6      1 +1.4834189e-01 1.00631900e+04 7.81653100e-03 6.93492400e-02
  1000022 -1    0    0    0    0 +0.0000000000e+00 +0.0000000000e+00 +4.4721471353e+01 1.0000100000e+04 1.0000000000e+04 0.0000e+00 -1.0000e+00
  1000022 -1    0    0    0    0 -0.0000000000e+00 -0.0000000000e+00 -4.4721471353e+01 1.0000100000e+04 1.0000000000e+04 0.0000e+00 -1.0000e+00
      -24  1    1    2    0    0 -1.3737724441e+03 +3.7598343553e+03 +2.8832589657e+03 4.9338788029e+03 7.9829010000e+01 0.0000e+00 -1.0000e+00
       24  1    1    2    0    0 +1.7775665421e+03 -8.4464451202e+03 -4.8897306367e+03 9.9205854842e+03 7.9829010000e+01 0.0000e+00 -1.0000e+00
       22  1    1    2    0    0 -2.1671430443e+00 -1.2277711449e+01 -1.0694724651e+01 1.6426072043e+01 0.0000000000e+00 0.0000e+00 -1.0000e+00
       22  1    1    2    0    0 -4.0162695494e+02 +4.6988884763e+03 +2.0171663957e+03 5.1293096409e+03 0.0000000000e+00 0.0000e+00 -1.0000e+00
</event>
<event>
 6      1 +1.4834189e-01 1.03537500e+04 7.81653100e-03 6.91779800e-02
  1000022 -1    0    0    0    0 +0.0000000000e+00 +0.0000000000e+00 +4.4721471353e+01 1.0000100000e+04 1.0000000000e+04 0.0000e+00 1.0000e+00
  1000022 -1    0    0    0    0 -0.0000000000e+00 -0.0000000000e+00 -4.4721471353e+01 1.0000100000e+04 1.0000000000e+04 0.0000e+00 1.0000e+00
      -24  1    1    2    0    0 -7.5425020121e+03 +5.8240239413e+03 +1.3099529139e+03 9.6193004308e+03 7.9829010000e+01 0.0000e+00 1.0000e+00
       24  1    1    2    0    0 +5.8113048677e+03 -5.9726397003e+03 -1.8160418895e+03 8.5292479194e+03 7.9829010000e+01 0.0000e+00 1.0000e+00
       22  1    1    2    0    0 +1.7504283634e+03 +1.3147596059e+02 +4.9751813577e+02 1.8245025840e+03 0.0000000000e+00 0.0000e+00 1.0000e+00
       22  1    1    2    0    0 -1.9231219044e+01 +1.7139798378e+01 +8.5708398805e+00 2.7149065741e+01 0.0000000000e+00 0.0000e+00 1.0000e+00
</event>
<event>
 6      1 +1.4834189e-01 1.00060100e+04 7.81653100e-03 6.93836200e-02
  1000022 -1    0    0    0    0 +0.0000000000e+00 +0.0000000000e+00 +4.4721471353e+01 1.0000100000e+04 1.0000000000e+04 0.0000e+00 -1.0000e+00
  1000022 -1    0    0    0    0 -0.0000000000e+00 -0.0000000000e+00 -4.4721471353e+01 1.0000100000e+04 1.0000000000e+04 0.0000e+00 -1.0000e+00
      -24  1    1    2    0    0 -6.1452851595e+03 -2.3684655640e+03 +3.8519415142e+03 7.6300710953e+03 7.9829010000e+01 0.0000e+00 -1.0000e+00
       24  1    1    2    0    0 +8.0498407789e+03 +2.9603209654e+03 -4.9174074139e+03 9.8868956265e+03 7.9829010000e+01 0.0000e+00 -1.0000e+00
       22  1    1    2    0    0 -1.9613934864e+03 -6.6571606905e+02 +1.1396488838e+03 2.3641154522e+03 0.0000000000e+00 0.0000e+00 -1.0000e+00
       22  1    1    2    0    0 +5.6837866997e+01 +7.3860667654e+01 -7.4182984082e+01 1.1911782603e+02 0.0000000000e+00 0.0000e+00 1.0000e+00
</event>
<event>
 6      1 +1.4834189e-01 1.00191900e+04 7.81653100e-03 6.93756800e-02
  1000022 -1    0    0    0    0 +0.0000000000e+00 +0.0000000000e+00 +4.4721471353e+01 1.0000100000e+04 1.0000000000e+04 0.0000e+00 -1.0000e+00
  1000022 -1    0    0    0    0 -0.0000000000e+00 -0.0000000000e+00 -4.4721471353e+01 1.0000100000e+04 1.0000000000e+04 0.0000e+00 -1.0000e+00
      -24  1    1    2    0    0 +8.1012904080e+02 -3.8921115458e+03 -8.8456445126e+03 9.6982803044e+03 7.9829010000e+01 0.0000e+00 -1.0000e+00
       24  1    1    2    0    0 -1.2857373228e+02 +1.2671634798e+03 +3.9366672714e+03 4.1383518900e+03 7.9829010000e+01 0.0000e+00 -1.0000e+00
       22  1    1    2    0    0 -4.3003691653e+01 +7.5129984992e+01 -3.0900904618e+02 3.2090562906e+02 0.0000000000e+00 0.0000e+00 1.0000e+00
       22  1    1    2    0    0 -6.3855161687e+02 +2.5498180810e+03 +5.2179862874e+03 5.8426621765e+03 0.0000000000e+00 0.0000e+00 -1.0000e+00
</event>
<event>
 6      1 +1.4834189e-01 1.02280900e+04 7.81653100e-03 6.92513500e-02
  1000022 -1    0    0    0    0 +0.0000000000e+00 +0.0000000000e+00 +4.4721471353e+01 1.0000100000e+04 1.0000000000e+04 0.0000e+00 1.0000e+00
  1000022 -1    0    0    0    0 -0.0000000000e+00 -0.0000000000e+00 -4.4721471353e+01 1.0000100000e+04 1.0000000000e+04 0.0000e+00 1.0000e+00
      -24  1    1    2    0    0 -3.0067619602e+03 -9.8300535302e+02 -1.1981166296e+03 3.3836035729e+03 7.9829010000e+01 0.0000e+00 1.0000e+00
       24  1    1    2    0    0 +9.1929552323e+03 +1.9608604219e+03 +2.6706645347e+03 9.7721144705e+03 7.9829010000e+01 0.0000e+00 1.0000e+00
       22  1    1    2    0    0 -6.1018154237e+03 -7.0503593520e+02 -1.8089230076e+03 6.4032358680e+03 0.0000000000e+00 0.0000e+00 1.0000e+00
       22  1    1    2    0    0 -8.4377848462e+01 -2.7281913372e+02 +3.3637510256e+02 4.4124608855e+02 0.0000000000e+00 0.0000e+00 1.0000e+00
</event>
<event>
 6      1 +1.4834189e-01 1.00966800e+04 7.81653100e-03 6.93292100e-02
  1000022 -1    0    0    0    0 +0.0000000000e+00 +0.0000000000e+00 +4.4721471353e+01 1.0000100000e+04 1.0000000000e+04 0.0000e+00 1.0000e+00
  1000022 -1    0    0    0    0 -0.0000000000e+00 -0.0000000000e+00 -4.4721471353e+01 1.0000100000e+04 1.0000000000e+04 0.0000e+00 1.0000e+00
      -24  1    1    2    0    0 -1.8459380004e+03 -6.0034768858e+03 +7.6239574296e+03 9.8782752229e+03 7.9829010000e+01 0.0000e+00 -1.0000e+00
       24  1    1    2    0    0 +1.3212111848e+03 +5.6415171175e+03 -7.4087755746e+03 9.4057770848e+03 7.9829010000e+01 0.0000e+00 -1.0000e+00
       22  1    1    2    0    0 +5.3008468033e+02 +3.7494268632e+02 -2.3616137544e+02 6.9090084788e+02 0.0000000000e+00 0.0000e+00 1.0000e+00
       22  1    1    2    0    0 -5.3578647740e+00 -1.2982918056e+01 +2.0979520485e+01 2.5246844476e+01 0.0000000000e+00 0.0000e+00 1.0000e+00
</event>
<event>
 6      1 +1.4834189e-01 1.00038400e+04 7.81653100e-03 6.93849400e-02
  1000022 -1    0    0    0    0 +0.0000000000e+00 +0.0000000000e+00 +4.4721471353e+01 1.0000100000e+04 1.0000000000e+04 0.0000e+00 1.0000e+00
  1000022 -1    0    0    0    0 -0.0000000000e+00 -0.0000000000e+00 -4.4721471353e+01 1.0000100000e+04 1.0000000000e+04 0.0000e+00 1.0000e+00
      -24  1    1    2    0    0 +1.5234370070e+03 -7.6513466174e+03 -3.8522174174e+03 8.7011445842e+03 7.9829010000e+01 0.0000e+00 -1.0000e+00
       24  1    1    2    0    0 -1.7862615061e+03 +8.8168829053e+03 +4.3580653022e+03 9.9963623475e+03 7.9829010000e+01 0.0000e+00 -1.0000e+00
       22  1    1    2    0    0 +7.1519884902e-01 -1.1573086111e+01 +6.3771834084e+00 1.3233151543e+01 0.0000000000e+00 0.0000e+00 -1.0000e+00
       22  1    1    2    0    0 +2.6210930028e+02 -1.1539632018e+03 -5.1222506819e+02 1.2894599167e+03 0.0000000000e+00 0.0000e+00 -1.0000e+00
</event>
<event>
 6      1 +1.4834189e-01 1.07349300e+04 7.81653100e-03 6.89616900e-02
  1000022 -1    0    0    0    0 +0.0000000000e+00 +0.0000000000e+00 +4.4721471353e+01 1.0000100000e+04 1.0000000000e+04 0.0000e+00 -1.0000e+00
  1000022 -1    0    0    0    0 -0.0000000000e+00 -0.0000000000e+00 -4.4721471353e+01 1.0000100000e+04 1.0000000000e+04 0.0000e+00 -1.0000e+00
      -24  1    1    2    0    0 +8.9424796729e+02 -2.1165356023e+03 +1.1929373004e+03 2.5901495046e+03 7.9829010000e+01 0.0000e+00 0.0000e+00
       24  1    1    2    0    0 -6.8649565544e+02 +7.6621863950e+03 -5.1631801584e+03 9.2652673277e+03 7.9829010000e+01 0.0000e+00 -1.0000e+00
       22  1    1    2    0    0 +1.9187152995e+03 -4.1354689722e+03 +2.4759436780e+03 5.1878578544e+03 0.0000000000e+00 0.0000e+00 -1.0000e+00
       22  1    1    2    0    0 -2.1264676114e+03 -1.4101818204e+03 +1.4942991800e+03 2.9569253133e+03 0.0000000000e+00 0.0000e+00 -1.0000e+00
</event>
<event>
 6      1 +1.4834189e-01 1.00048800e+04 7.81653100e-03 6.93843100e-02
  1000022 -1    0    0    0    0 +0.0000000000e+00 +0.0000000000e+00 +4.4721471353e+01 1.0000100000e+04 1.0000000000e+04 0.0000e+00 -1.0000e+00
  1000022 -1    0    0    0    0 -0.0000000000e+00 -0.0000000000e+00 -4.4721471353e+01 1.0000100000e+04 1.0000000000e+04 0.0000e+00 -1.0000e+00
      -24  1    1    2    0    0 +5.3459336799e+03 +7.7744598259e+03 +1.4152633078e+03 9.5409944657e+03 7.9829010000e+01 0.0000e+00 -1.0000e+00
       24  1    1    2    0    0 -1.3552444763e+03 -1.8133456382e+03 -1.9044866554e+02 2.2732253208e+03 7.9829010000e+01 0.0000e+00 1.0000e+00
       22  1    1    2    0    0 -4.2433807919e+03 -6.3323302664e+03 -1.2937695009e+03 7.7316574335e+03 0.0000000000e+00 0.0000e+00 -1.0000e+00
       22  1    1    2    0    0 +2.5269158834e+02 +3.7121607869e+02 +6.8954858647e+01 4.5432278000e+02 0.0000000000e+00 0.0000e+00 -1.0000e+00
</event>
<event>
 6      1 +1.4834189e-01 1.01112000e+04 7.81653100e-03 6.93205400e-02
  1000022 -1    0    0    0    0 +0.0000000000e+00 +0.0000000000e+00 +4.4721471353e+01 1.0000100000e+04 1.0000000000e+04 0.0000e+00 -1.0000e+00
  1000022 -1    0    0    0    0 -0.0000000000e+00 -0.0000000000e+00 -4.4721471353e+01 1.0000100000e+04 1.0000000000e+04 0.0000e+00 -1.0000e+00
      -24  1    1    2    0    0 -5.6016970043e+03 +3.3129668694e+03 +7.4452076480e+03 9.8889963291e+03 7.9829010000e+01 0.0000e+00 1.0000e+00
       24  1    1    2    0    0 +5.2765913996e+03 -3.5498220167e+03 -7.1369285927e+03 9.5595907631e+03 7.9829010000e+01 0.0000e+00 1.0000e+00
       22  1    1    2    0    0 +2.6593859280e+02 +2.7519207774e+02 -2.3100118510e+02 4.4700734033e+02 0.0000000000e+00 0.0000e+00 1.0000e+00
       22  1    1    2    0    0 +5.9167011854e+01 -3.8336930389e+01 -7.7277870153e+01 1.0460556744e+02 0.0000000000e+00 0.0000e+00 -1.0000e+00
</event>
<event>
 6      1 +1.4834189e-01 1.00163500e+04 7.81653100e-03 6.93773900e-02
  1000022 -1    0    0    0    0 +0.0000000000e+00 +0.0000000000e+00 +4.4721471353e+01 1.0000100000e+04 1.0000000000e+04 0.0000e+00 -1.0000e+00
  1000022 -1    0    0    0    0 -0.0000000000e+00 -0.0000000000e+00 -4.4721471353e+01 1.0000100000e+04 1.0000000000e+04 0.0000e+00 -1.0000e+00
      -24  1    1    2    0    0 +1.0952419192e+03 -1.8705485392e+03 +9.4480695571e+02 2.3659119919e+03 7.9829010000e+01 0.0000e+00 -1.0000e+00
       24  1    1    2    0    0 -4.2766852929e+03 +7.0324344396e+03 -2.2044858738e+03 8.5212265479e+03 7.9829010000e+01 0.0000e+00 -1.0000e+00
       22  1    1    2    0    0 -6.8418680510e+02 +1.2236103020e+03 -4.1706796347e+02 1.4626275813e+03 0.0000000000e+00 0.0000e+00 -1.0000e+00
       22  1    1    2    0    0 +3.8656301788e+03 -6.3854962024e+03 +1.6767468815e+03 7.6504338789e+03 0.0000000000e+00 0.0000e+00 -1.0000e+00
</event>
<event>
 6      1 +1.4834189e-01 1.01307300e+04 7.81653100e-03 6.93089200e-02
  1000022 -1    0    0    0    0 +0.0000000000e+00 +0.0000000000e+00 +4.4721471353e+01 1.0000100000e+04 1.0000000000e+04 0.0000e+00 1.0000e+00
  1000022 -1    0    0    0    0 -0.0000000000e+00 -0.0000000000e+00 -4.4721471353e+01 1.0000100000e+04 1.0000000000e+04 0.0000e+00 1.0000e+00
      -24  1    1    2    0    0 +4.1196798883e+03 +3.8988879236e+03 +4.5117731908e+03 7.2481417908e+03 7.9829010000e+01 0.0000e+00 1.0000e+00
       24  1    1    2    0    0 -2.9350274488e+02 +1.9314627377e+02 -6.2588387174e+02 7.2218601209e+02 7.9829010000e+01 0.0000e+00 -1.0000e+00
       22  1    1    2    0    0 -5.4886440342e+03 -5.2644008347e+03 -5.5391000127e+03 9.4085470947e+03 0.0000000000e+00 0.0000e+00 1.0000e+00
       22  1    1    2    0    0 +1.6624668907e+03 +1.1723666373e+03 +1.6532106936e+03 2.6213251024e+03 0.0000000000e+00 0.0000e+00 -1.0000e+00
</event>
<event>
 6      1 +1.4834189e-01 1.03667700e+04 7.81653100e-03 6.91704400e-02
  1000022 -1    0    0    0    0 +0.0000000000e+00 +0.0000000000e+00 +4.4721471353e+01 1.0000100000e+04 1.0000000000e+04 0.0000e+00 -1.0000e+00
  1000022 -1    0    0    0    0 -0.0000000000e+00 -0.0000000000e+00 -4.4721471353e+01 1.0000100000e+04 1.0000000000e+04 0.0000e+00 -1.0000e+00
      -24  1    1    2    0    0 -3.4938873397e+03 -8.5152839808e+03 -1.8593500442e+03 9.3904667229e+03 7.9829010000e+01 0.0000e+00 1.0000e+00
       24  1    1    2    0    0 +4.3221202839e+03 +7.0626832731e+03 +9.3253631234e+02 8.3329595828e+03 7.9829010000e+01 0.0000e+00 1.0000e+00
       22  1    1    2    0    0 -1.2487115676e+02 -9.9867869099e+01 -1.8292785348e+02 2.4295883735e+02 0.0000000000e+00 0.0000e+00 -1.0000e+00
       22  1    1    2    0    0 -7.0336178737e+02 +1.5524685768e+03 +1.1097415854e+03 2.0338148569e+03 0.0000000000e+00 0.0000e+00 1.0000e+00
</event>
<event>
 6      1 +1.4834189e-01 1.01652800e+04 7.81653100e-03 6.92884100e-02
  1000022 -1    0    0    0    0 +0.0000000000e+00 +0.0000000000e+00 +4.4721471353e+01 1.0000100000e+04 1.0000000000e+04 0.0000e+00 1.0000e+00
  1000022 -1    0    0    0    0 -0.0000000000e+00 -0.0000000000e+00 -4.4721471353e+01 1.0000100000e+04 1.0000000000e+04 0.0000e+00 1.0000e+00
      -24  1    1    2    0    0 -2.3432089553e+03 +4.9786902822e+03 -3.6293057896e+02 5.5150771898e+03 7.9829010000e+01 0.0000e+00 -1.0000e+00
       24  1    1    2    0    0 +9.0090065860e+02 -5.2224612142e+03 -3.0813809876e+02 5.3091472846e+03 7.9829010000e+01 0.0000e+00 -1.0000e+00
       22  1    1    2    0    0 +1.2259459514e+03 -4.3564845538e+03 +2.6686426234e+01 4.5257721230e+03 0.0000000000e+00 0.0000e+00 -1.0000e+00
       22  1    1    2    0    0 +2.1636234526e+02 +4.6002554859e+03 +6.4438225149e+02 4.6502034026e+03 0.0000000000e+00 0.0000e+00 -1.0000e+00
</event>
<event>
 6      1 +1.4834189e-01 1.01790700e+04 7.81653100e-03 6.92802500e-02
  1000022 -1    0    0    0    0 +0.0000000000e+00 +0.0000000000e+00 +4.4721471353e+01 1.0000100000e+04 1.0000000000e+04 0.0000e+00 -1.0000e+00
  1000022 -1    0    0    0    0 -0.0000000000e+00 -0.0000000000e+00 -4.4721471353e+01 1.0000100000e+04 1.0000000000e+04 0.0000e+00 -1.0000e+00
      -24  1    1    2    0    0 -8.4576757903e+03 -4.3598514184e+03 -1.2931029594e+03 9.6030761789e+03 7.9829010000e+01 0.0000e+00 -1.0000e+00
       24  1    1    2    0    0 +8.5293651576e+02 -3.2535392068e+02 +3.4635283225e+02 9.7963709039e+02 7.9829010000e+01 0.0000e+00 -1.0000e+00
       22  1    1    2    0    0 -1.9170742778e+02 -9.8775351632e+01 -3.2257296188e+01 2.1805696759e+02 0.0000000000e+00 0.0000e+00 -1.0000e+00
       22  1    1    2    0    0 +7.7964467023e+03 +4.7839806907e+03 +9.7900742330e+02 9.1994297631e+03 0.0000000000e+00 0.0000e+00 -1.0000e+00
</event>
<event>
 6      1 +1.4834189e-01 1.00015700e+04 7.81653100e-03 6.93863100e-02
  1000022 -1    0    0    0    0 +0.0000000000e+00 +0.0000000000e+00 +4.4721471353e+01 1.0000100000e+04 1.0000000000e+04 0.0000e+00 1.0000e+00
  1000022 -1    0    0    0    0 -0.0000000000e+00 -0.0000000000e+00 -4.4721471353e+01 1.0000100000e+04 1.0000000000e+04 0.0000e+00 1.0000e+00
      -24  1    1    2    0    0 -5.2886797146e+03 +6.7442145051e+03 +5.0787794882e+03 9.9626771590e+03 7.9829010000e+01 0.0000e+00 -1.0000e+00
       24  1    1    2    0    0 +5.2981973213e+03 -6.7716277324e+03 -5.1029754845e+03 9.9986283293e+03 7.9829010000e+01 0.0000e+00 -1.0000e+00
       22  1    1    2    0    0 -2.4623749619e+00 +1.8372337829e+01 +1.8096393193e+01 2.5905318650e+01 0.0000000000e+00 0.0000e+00 1.0000e+00
       22  1    1    2    0    0 -7.0552316985e+00 +9.0408894514e+00 +6.0996031316e+00 1.2989192999e+01 0.0000000000e+00 0.0000e+00 1.0000e+00
</event>
<event>
 6      1 +1.4834189e-01 1.00699600e+04 7.81653100e-03 6.93451800e-02
  1000022 -1    0    0    0    0 +0.0000000000e+00 +0.0000000000e+00 +4.4721471353e+01 1.0000100000e+04 1.0000000000e+04 0.0000e+00 1.0000e+00
  1000022 -1    0    0    0    0 -0.0000000000e+00 -0.0000000000e+00 -4.4721471353e+01 1.0000100000e+04 1.0000000000e+04 0.0000e+00 1.0000e+00
      -24  1    1    2    0    0 +4.7066305570e+03 -1.9989685859e+03 +1.6436895258e+03 5.3718092423e+03 7.9829010000e+01 0.0000e+00 0.0000e+00
       24  1    1    2    0    0 -8.7836236128e+03 +3.5267470064e+03 -3.0022250124e+03 9.9302424903e+03 7.9829010000e+01 0.0000e+00 1.0000e+00
       22  1    1    2    0    0 +1.7724036557e+02 +1.6193596895e+02 +1.4104468483e+01 2.4049187358e+02 0.0000000000e+00 0.0000e+00 -1.0000e+00
       22  1    1    2    0    0 +3.8997526903e+03 -1.6897143895e+03 +1.3444310181e+03 4.4576563939e+03 0.0000000000e+00 0.0000e+00 1.0000e+00
</event>
<event>
 6      1 +1.4834189e-01 1.00141900e+04 7.81653100e-03 6.93786900e-02
  1000022 -1    0    0    0    0 +0.0000000000e+00 +0.0000000000e+00 +4.4721471353e+01 1.0000100000e+04 1.0000000000e+04 0.0000e+00 -1.0000e+00
  1000022 -1    0    0    0    0 -0.0000000000e+00 -0.0000000000e+00 -4.4721471353e+01 1.0000100000e+04 1.0000000000e+04 0.0000e+00 -1.0000e+00
      -24  1    1    2    0    0 -4.4226549558e+03 +8.7453030510e+03 -1.7223156012e+03 9.9505249114e+03 7.9829010000e+01 0.0000e+00 1.0000e+00
       24  1    1    2    0    0 +4.3818503403e+03 -8.4848463368e+03 +1.5740305068e+03 9.6786969408e+03 7.9829010000e+01 0.0000e+00 1.0000e+00
       22  1    1    2    0    0 -1.4530357942e+01 +3.1496118082e+01 -7.4698409709e+00 3.5481477989e+01 0.0000000000e+00 0.0000e+00 -1.0000e+00
       22  1    1    2    0    0 +5.5334973399e+01 -2.9195283227e+02 +1.5575493541e+02 3.3549666982e+02 0.0000000000e+00 0.0000e+00 1.0000e+00
</event>
<event>
 6      1 +1.4834189e-01 1.00980300e+04 7.81653100e-03 6.93284000e-02
  1000022 -1    0    0    0    0 +0.0000000000e+00 +0.0000000000e+00 +4.4721471353e+01 1.0000100000e+04 1.0000000000e+04 0.0000e+00 -1.0000e+00
  1000022 -1    0    0    0    0 -0.0000000000e+00 -0.0000000000e+00 -4.4721471353e+01 1.0000100000e+04 1.0000000000e+04 0.0000e+00 -1.0000e+00
      -24  1    1    2    0    0 -2.6851676798e+02 -6.1244812067e+03 -7.6155535993e+03 9.7767274995e+03 7.9829010000e+01 0.0000e+00 1.0000e+00
       24  1    1    2    0    0 +1.6431174801e+02 +5.5308457039e+03 +6.9879177187e+03 8.9137320615e+03 7.9829010000e+01 0.0000e+00 1.0000e+00
       22  1    1    2    0    0 -1.7648259130e+02 +5.7676611355e+02 +7.8307886106e+02 9.8844208602e+02 0.0000000000e+00 0.0000e+00 -1.0000e+00
       22  1    1    2    0    0 +2.8068761127e+02 +1.6869389290e+01 -1.5544298050e+02 3.2129835294e+02 0.0000000000e+00 0.0000e+00 -1.0000e+00
</event>
<event>
 6      1 +1.4834189e-01 1.00140300e+04 7.81653100e-03 6.93787900e-02
  1000022 -1    0    0    0    0 +0.0000000000e+00 +0.0000000000e+00 +4.4721471353e+01 1.0000100000e+04 1.0000000000e+04 0.0000e+00 -1.0000e+00
  1000022 -1    0    0    0    0 -0.0000000000e+00 -0.0000000000e+00 -4.4721471353e+01 1.0000100000e+04 1.0000000000e+04 0.0000e+00 -1.0000e+00
      -24  1    1    2    0    0 +3.9908464387e+02 +3.3807004383e+01 -1.5037529389e+02 4.3519750271e+02 7.9829010000e+01 0.0000e+00 0.0000e+00
       24  1    1    2    0    0 -9.4484142875e+03 +5.3417153320e+02 +3.1873762155e+03 9.9861710173e+03 7.9829010000e+01 0.0000e+00 -1.0000e+00
       22  1    1    2    0    0 +9.0274101192e+03 -5.8716744432e+02 -3.0501786650e+03 9.5468575435e+03 0.0000000000e+00 0.0000e+00 -1.0000e+00
       22  1    1    2    0    0 +2.1919524505e+01 +1.9188906738e+01 +1.3177743404e+01 3.1973936535e+01 0.0000000000e+00 0.0000e+00 1.0000e+00
</event>
<event>
 6      1 +1.4834189e-01 1.00012300e+04 7.81653100e-03 6.93865100e-02
  1000022 -1    0    0    0    0 +0.0000000000e+00 +0.0000000000e+00 +4.4721471353e+01 1.0000100000e+04 1.0000000000e+04 0.0000e+00 1.0000e+00
  1000022 -1    0    0    0    0 -0.0000000000e+00 -0.0000000000e+00 -4.4721471353e+01 1.0000100000e+04 1.0000000000e+04 0.0000e+00 1.0000e+00
      -24  1    1    2    0    0 -3.4229062890e+03 +7.6167152702e+03 -3.8203859293e+03 9.1832652303e+03 7.9829010000e+01 0.0000e+00 -1.0000e+00
       24  1    1    2    0    0 +3.5222343164e+03 -7.9224473651e+03 +3.9118889648e+03 9.5121267220e+03 7.9829010000e+01 0.0000e+00 -1.0000e+00
       22  1    1    2    0    0 +1.8611039169e+02 -4.0445095831e+02 +1.9698388456e+02 4.8684731318e+02 0.0000000000e+00 0.0000e+00 1.0000e+00
       22  1    1    2    0    0 -2.8543841903e+02 +7.1018305322e+02 -2.8848692004e+02 8.1796073449e+02 0.0000000000e+00 0.0000e+00 1.0000e+00
</event>
<event>
 6      1 +1.4834189e-01 1.00119500e+04 7.81653100e-03 6.93800400e-02
  1000022 -1    0    0    0    0 +0.0000000000e+00 +0.0000000000e+00 +4.4721471353e+01 1.0000100000e+04 1.0000000000e+04 0.0000e+00 -1.0000e+00
  1000022 -1    0    0    0    0 -0.0000000000e+00 -0.0000000000e+00 -4.4721471353e+01 1.0000100000e+04 1.0000000000e+04 0.0000e+00 -1.0000e+00
      -24  1    1    2    0    0 -9.0334313737e+03 -3.6529522877e+03 +1.0875210756e+03 9.8048976313e+03 7.9829010000e+01 0.0000e+00 1.0000e+00
       24  1    1    2    0    0 +5.9674765806e+03 +2.1557215286e+03 -2.1292832363e+02 6.3489859971e+03 7.9829010000e+01 0.0000e+00 1.0000e+00
       22  1    1    2    0    0 -9.9962730398e+01 -1.4727299668e+02 -4.3987124912e+01 1.8334871196e+02 0.0000000000e+00 0.0000e+00 1.0000e+00
       22  1    1    2    0    0 +3.1659175235e+03 +1.6445037558e+03 -8.3060562710e+02 3.6629676597e+03 0.0000000000e+00 0.0000e+00 1.0000e+00
</event>
<event>
 6      1 +1.4834189e-01 1.00740600e+04 7.81653100e-03 6.93427300e-02
  1000022 -1    0    0    0    0 +0.0000000000e+00 +0.0000000000e+00 +4.4721471353e+01 1.0000100000e+04 1.0000000000e+04 0.0000e+00 1.0000e+00
  1000022 -1    0    0    0    0 -0.0000000000e+00 -0.0000000000e+00 -4.4721471353e+01 1.0000100000e+04 1.0000000000e+04 0.0000e+00 1.0000e+00
      -24  1    1    2    0    0 +2.4218352452e+03 -5.8652797164e+03 -7.6324993163e+03 9.9261377479e+03 7.9829010000e+01 0.0000e+00 -1.0000e+00
       24  1    1    2    0    0 -1.5403746009e+03 +3.9669546894e+03 +4.6348744547e+03 6.2926876055e+03 7.9829010000e+01 0.0000e+00 -1.0000e+00
       22  1    1    2    0    0 -1.4668820731e+02 +9.7831751007e+01 -3.4080625739e+01 1.7958276844e+02 0.0000000000e+00 0.0000e+00 -1.0000e+00
       22  1    1    2    0    0 -7.3477243693e+02 +1.8004932760e+03 +3.0317054874e+03 3.6017918781e+03 0.0000000000e+00 0.0000e+00 1.0000e+00
</event>
<event>
 6      1 +1.4834189e-01 1.07755800e+04 7.81653100e-03 6.89391600e-02
  1000022 -1    0    0    0    0 +0.0000000000e+00 +0.0000000000e+00 +4.4721471353e+01 1.0000100000e+04 1.0000000000e+04 0.0000e+00 -1.0000e+00
  1000022 -1    0    0    0    0 -0.0000000000e+00 -0.0000000000e+00 -4.4721471353e+01 1.0000100000e+04 1.0000000000e+04 0.0000e+00 -1.0000e+00
      -24  1    1    2    0    0 +4.5822284038e+03 +3.7467957099e+02 +5.4504300053e+03 7.1309720122e+03 7.9829010000e+01 0.0000e+00 -1.0000e+00
       24  1    1    2    0    0 -4.7157829535e+03 -1.9176979561e+02 -7.9253898049e+03 9.2246171058e+03 7.9829010000e+01 0.0000e+00 -1.0000e+00
       22  1    1    2    0    0 +2.1764418209e+01 -1.2953224992e+03 +5.2695972541e+02 1.3985780704e+03 0.0000000000e+00 0.0000e+00 -1.0000e+00
       22  1    1    2    0    0 +1.1179013151e+02 +1.1124127238e+03 +1.9480000742e+03 2.2460328116e+03 0.0000000000e+00 0.0000e+00 -1.0000e+00
</event>
<event>
 6      1 +1.4834189e-01 1.01491400e+04 7.81653100e-03 6.92979800e-02
  1000022 -1    0    0    0    0 +0.0000000000e+00 +0.0000000000e+00 +4.4721471353e+01 1.0000100000e+04 1.0000000000e+04 0.0000e+00 -1.0000e+00
  1000022 -1    0    0    0    0 -0.0000000000e+00 -0.0000000000e+00 -4.4721471353e+01 1.0000100000e+04 1.0000000000e+04 0.0000e+00 -1.0000e+00
      -24  1    1    2    0    0 -4.6286700804e+03 +5.6624763136e+03 -6.0539738994e+03 9.4944824693e+03 7.9829010000e+01 0.0000e+00 1.0000e+00
       24  1    1    2    0    0 +4.3934872271e+03 -6.0968038730e+03 +6.0666946672e+03 9.6584110669e+03 7.9829010000e+01 0.0000e+00 1.0000e+00
       22  1    1    2    0    0 -3.8784083520e+01 -1.4509026110e+02 +1.2066099029e+02 1.9265114476e+02 0.0000000000e+00 0.0000e+00 -1.0000e+00
       22  1    1    2    0    0 +2.7396693679e+02 +5.7941782059e+02 -1.3338175813e+02 6.5465531898e+02 0.0000000000e+00 0.0000e+00 1.0000e+00
</event>
<event>
 6      1 +1.4834189e-01 5.57079700e+03 7.81653100e-03 7.31122600e-02
  1000022 -1    0    0    0    0 +0.0000000000e+00 +0.0000000000e+00 +4.4721471353e+01 1.0000100000e+04 1.0000000000e+04 0.0000e+00 1.0000e+00
  1000022 -1    0    0    0    0 -0.0000000000e+00 -0.0000000000e+00 -4.4721471353e+01 1.0000100000e+04 1.0000000000e+04 0.0000e+00 1.0000e+00
      -24  1    1    2    0    0 -4.3488423205e+03 +2.8554288204e+03 +5.1225614156e+03 7.3015691056e+03 7.9829010000e+01 0.0000e+00 1.0000e+00
       24  1    1    2    0    0 -6.3431659506e+02 -1.0788253597e+03 -1.8706016378e+03 2.2520534757e+03 7.9829010000e+01 0.0000e+00 1.0000e+00
       22  1    1    2    0    0 -7.3552039141e+02 -1.9094913144e+03 -4.1777123276e+03 4.6519273014e+03 0.0000000000e+00 0.0000e+00 1.0000e+00
       22  1    1    2    0    0 +5.7186793069e+03 +1.3288785362e+02 +9.2575254975e+02 5.7946501172e+03 0.0000000000e+00 0.0000e+00 1.0000e+00
</event>
<event>
 6      1 +1.4834189e-01 1.00266700e+04 7.81653100e-03 6.93711700e-02
  1000022 -1    0    0    0    0 +0.0000000000e+00 +0.0000000000e+00 +4.4721471353e+01 1.0000100000e+04 1.0000000000e+04 0.0000e+00 -1.0000e+00
  1000022 -1    0    0    0    0 -0.0000000000e+00 -0.0000000000e+00 -4.4721471353e+01 1.0000100000e+04 1.0000000000e+04 0.0000e+00 -1.0000e+00
      -24  1    1    2    0    0 +6.9048175920e+01 +8.1290066724e+03 +5.7774863893e+03 9.9735268977e+03 7.9829010000e+01 0.0000e+00 -1.0000e+00
       24  1    1    2    0    0 -1.5613555626e+02 -7.2870179800e+03 -4.8609669852e+03 8.7613002491e+03 7.9829010000e+01 0.0000e+00 -1.0000e+00
       22  1    1    2    0    0 +1.2169084462e+01 -3.9975732417e+02 -5.8049799659e+02 7.0493398903e+02 0.0000000000e+00 0.0000e+00 -1.0000e+00
       22  1    1    2    0    0 +7.4918295877e+01 -4.4223136818e+02 -3.3602140751e+02 5.6043886408e+02 0.0000000000e+00 0.0000e+00 1.0000e+00
</event>
<event>
 6      1 +1.4834189e-01 1.12625100e+04 7.81653100e-03 6.86767800e-02
  1000022 -1    0    0    0    0 +0.0000000000e+00 +0.0000000000e+00 +4.4721471353e+01 1.0000100000e+04 1.0000000000e+04 0.0000e+00 -1.0000e+00
  1000022 -1    0    0    0    0 -0.0000000000e+00 -0.0000000000e+00 -4.4721471353e+01 1.0000100000e+04 1.0000000000e+04 0.0000e+00 -1.0000e+00
      -24  1    1    2    0    0 +5.5516773739e+03 +1.5786471019e+03 -6.5595373226e+03 8.7376856715e+03 7.9829010000e+01 0.0000e+00 -1.0000e+00
       24  1    1    2    0    0 -1.0166378729e+03 -1.1588959536e+02 +5.0742579513e+03 5.1770116274e+03 7.9829010000e+01 0.0000e+00 -1.0000e+00
       22  1    1    2    0    0 -4.1876082956e+03 -1.3850715189e+03 -1.4865983617e+02 4.4132285344e+03 0.0000000000e+00 0.0000e+00 -1.0000e+00
       22  1    1    2    0    0 -3.4743120540e+02 -7.7685987629e+01 +1.6339392075e+03 1.6722741668e+03 0.0000000000e+00 0.0000e+00 1.0000e+00
</event>
<event>
 6      1 +1.4834189e-01 1.03009300e+04 7.81653100e-03 6.92086900e-02
  1000022 -1    0    0    0    0 +0.0000000000e+00 +0.0000000000e+00 +4.4721471353e+01 1.0000100000e+04 1.0000000000e+04 0.0000e+00 -1.0000e+00
  1000022 -1    0    0    0    0 -0.0000000000e+00 -0.0000000000e+00 -4.4721471353e+01 1.0000100000e+04 1.0000000000e+04 0.0000e+00 -1.0000e+00
      -24  1    1    2    0    0 -7.4366864620e+03 +3.0929927575e+03 +4.6301494552e+03 9.2906171151e+03 7.9829010000e+01 0.0000e+00 1.0000e+00
       24  1    1    2    0    0 +7.5654640797e+03 -3.3801072243e+03 -3.6073955709e+03 9.0377567496e+03 7.9829010000e+01 0.0000e+00 1.0000e+00
       22  1    1    2    0    0 -3.2654941183e+02 +1.2113542853e+02 +2.1375039152e+02 4.0865332531e+02 0.0000000000e+00 0.0000e+00 1.0000e+00
       22  1    1    2    0    0 +1.9777179416e+02 +1.6597903834e+02 -1.2365042759e+03 1.2631728100e+03 0.0000000000e+00 0.0000e+00 1.0000e+00
</event>
<event>
 6      1 +1.4834189e-01 1.00424000e+04 7.81653100e-03 6.93617100e-02
  1000022 -1    0    0    0    0 +0.0000000000e+00 +0.0000000000e+00 +4.4721471353e+01 1.0000100000e+04 1.0000000000e+04 0.0000e+00 -1.0000e+00
  1000022 -1    0    0    0    0 -0.0000000000e+00 -0.0000000000e+00 -4.4721471353e+01 1.0000100000e+04 1.0000000000e+04 0.0000e+00 -1.0000e+00
      -24  1    1    2    0    0 -4.2559262366e+03 -3.2393944627e+03 -8.3990939126e+03 9.9577977404e+03 7.9829010000e+01 0.0000e+00 1.0000e+00
       24  1    1    2    0    0 +3.1449218006e+03 +2.7065747160e+03 +6.4452976430e+03 7.6657885572e+03 7.9829010000e+01 0.0000e+00 1.0000e+00
       22  1    1    2    0    0 +4.7105109531e+02 -6.3349594380e+01 +7.6761671151e+02 9.0284977781e+02 0.0000000000e+00 0.0000e+00 1.0000e+00
       22  1    1    2    0    0 +6.3995334066e+02 +5.9616934105e+02 +1.1861795581e+03 1.4737639246e+03 0.0000000000e+00 0.0000e+00 -1.0000e+00
</event>
<event>
 6      1 +1.4834189e-01 1.00086100e+04 7.81653100e-03 6.93820600e-02
  1000022 -1    0    0    0    0 +0.0000000000e+00 +0.0000000000e+00 +4.4721471353e+01 1.0000100000e+04 1.0000000000e+04 0.0000e+00 1.0000e+00
  1000022 -1    0    0    0    0 -0.0000000000e+00 -0.0000000000e+00 -4.4721471353e+01 1.0000100000e+04 1.0000000000e+04 0.0000e+00 1.0000e+00
      -24  1    1    2    0    0 +4.6388082611e+03 -8.7578374568e+03 -9.5782881098e+02 9.9570109825e+03 7.9829010000e+01 0.0000e+00 -1.0000e+00
       24  1    1    2    0    0 -4.6048038609e+03 +8.7711218976e+03 +9.3488759034e+02 9.9507379333e+03 7.9829010000e+01 0.0000e+00 -1.0000e+00
       22  1    1    2    0    0 +1.4050744303e+01 -3.1365427245e+01 -3.7690914982e+00 3.4574839008e+01 0.0000000000e+00 0.0000e+00 1.0000e+00
       22  1    1    2    0    0 -4.8055144465e+01 +1.8080986495e+01 +2.6710312138e+01 5.7876245185e+01 0.0000000000e+00 0.0000e+00 -1.0000e+00
</event>
<event>
 6      1 +1.4834189e-01 1.03757200e+04 7.81653100e-03 6.91652600e-02
  1000022 -1    0    0    0    0 +0.0000000000e+00 +0.0000000000e+00 +4.4721471353e+01 1.0000100000e+04 1.0000000000e+04 0.0000e+00 1.0000e+00
  1000022 -1    0    0    0    0 -0.0000000000e+00 -0.0000000000e+00 -4.4721471353e+01 1.0000100000e+04 1.0000000000e+04 0.0000e+00 1.0000e+00
      -24  1    1    2    0    0 +4.3407249769e+03 -6.3001012468e+03 +5.8387595860e+03 9.6244820754e+03 7.9829010000e+01 0.0000e+00 -1.0000e+00
       24  1    1    2    0    0 -4.8573725306e+03 +5.6870850475e+03 -4.4900224039e+03 8.7237422071e+03 7.9829010000e+01 0.0000e+00 -1.0000e+00
       22  1    1    2    0    0 +6.0351031373e+02 +5.1082029874e+02 -1.2712527917e+03 1.4970790683e+03 0.0000000000e+00 0.0000e+00 -1.0000e+00
       22  1    1    2    0    0 -8.6862760021e+01 +1.0219590063e+02 -7.7484390411e+01 1.5489664922e+02 0.0000000000e+00 0.0000e+00 -1.0000e+00
</event>
<event>
 6      1 +1.4834189e-01 1.00545300e+04 7.81653100e-03 6.93544300e-02
  1000022 -1    0    0    0    0 +0.0000000000e+00 +0.0000000000e+00 +4.4721471353e+01 1.0000100000e+04 1.0000000000e+04 0.0000e+00 -1.0000e+00
  1000022 -1    0    0    0    0 -0.0000000000e+00 -0.0000000000e+00 -4.4721471353e+01 1.0000100000e+04 1.0000000000e+04 0.0000e+00 -1.0000e+00
      -24  1    1    2    0    0 -9.7574395382e+03 -1.6246166083e+03 +1.0309618248e+03 9.9456654086e+03 7.9829010000e+01 0.0000e+00 1.0000e+00
       24  1    1    2    0    0 +8.4690140314e+03 +1.7874032028e+03 -6.0820215174e+02 8.6772859468e+03 7.9829010000e+01 0.0000e+00 1.0000e+00
       22  1    1    2    0    0 +1.2394768154e+03 -1.7539323152e+02 -4.3498317549e+02 1.3252456091e+03 0.0000000000e+00 0.0000e+00 1.0000e+00
       22  1    1    2    0    0 +4.8948691374e+01 +1.2606636996e+01 +1.2223502411e+01 5.2003035438e+01 0.0000000000e+00 0.0000e+00 -1.0000e+00
</event>
<event>
 6      1 +1.4834189e-01 9.90145800e+03 7.81653100e-03 6.94471000e-02
  1000022 -1    0    0    0    0 +0.0000000000e+00 +0.0000000000e+00 +4.4721471353e+01 1.0000100000e+04 1.0000000000e+04 0.0000e+00 -1.0000e+00
  1000022 -1    0    0    0    0 -0.0000000000e+00 -0.0000000000e+00 -4.4721471353e+01 1.0000100000e+04 1.0000000000e+04 0.0000e+00 -1.0000e+00
      -24  1    1    2    0    0 +1.8067049032e+02 -8.6122816970e+01 -7.9927098239e+01 2.2982597231e+02 7.9829010000e+01 0.0000e+00 -1.0000e+00
       24  1    1    2    0    0 -6.6410909440e+01 -7.0966711149e+01 +5.2677813049e+02 5.4158522191e+02 7.9829010000e+01 0.0000e+00 0.0000e+00
       22  1    1    2    0    0 +1.9079808594e+03 -8.1713445714e+02 +9.1451045891e+03 9.3776882879e+03 0.0000000000e+00 0.0000e+00 1.0000e+00
       22  1    1    2    0    0 -2.0222404403e+03 +9.7422398526e+02 -9.5919556213e+03 9.8511005179e+03 0.0000000000e+00 0.0000e+00 1.0000e+00
</event>
<event>
 6      1 +1.4834189e-01 1.00001400e+04 7.81653100e-03 6.93871700e-02
  1000022 -1    0    0    0    0 +0.0000000000e+00 +0.0000000000e+00 +4.4721471353e+01 1.0000100000e+04 1.0000000000e+04 0.0000e+00 -1.0000e+00
  1000022 -1    0    0    0    0 -0.0000000000e+00 -0.0000000000e+00 -4.4721471353e+01 1.0000100000e+04 1.0000000000e+04 0.0000e+00 -1.0000e+00
      -24  1    1    2    0    0 -9.7454792823e+02 +9.7609642880e+03 +1.5760048440e+03 9.9356092634e+03 7.9829010000e+01 0.0000e+00 1.0000e+00
       24  1    1    2    0    0 +9.0537127795e+02 -9.1928938389e+03 -1.4902687900e+03 9.3571506358e+03 7.9829010000e+01 0.0000e+00 1.0000e+00
       22  1    1    2    0    0 +7.3869441370e+01 -6.3121047018e+02 -9.7763017898e+01 6.4299374780e+02 0.0000000000e+00 0.0000e+00 1.0000e+00
       22  1    1    2    0    0 -4.6927910874e+00 +6.3140021106e+01 +1.2026963951e+01 6.4446353002e+01 0.0000000000e+00 0.0000e+00 -1.0000e+00
</event>
<event>
 6      1 +1.4834189e-01 1.00629400e+04 7.81653100e-03 6.93493900e-02
  1000022 -1    0    0    0    0 +0.0000000000e+00 +0.0000000000e+00 +4.4721471353e+01 1.0000100000e+04 1.0000000000e+04 0.0000e+00 -1.0000e+00
  1000022 -1    0    0    0    0 -0.0000000000e+00 -0.0000000000e+00 -4.4721471353e+01 1.0000100000e+04 1.0000000000e+04 0.0000e+00 -1.0000e+00
      -24  1    1    2    0    0 -3.3148122103e+03 -3.6164775556e+03 +3.2568427318e+03 5.8889971260e+03 7.9829010000e+01 0.0000e+00 -1.0000e+00
       24  1    1    2    0    0 +4.8453756081e+03 +5.6002013199e+03 -6.5872664770e+03 9.9115272242e+03 7.9829010000e+01 0.0000e+00 -1.0000e+00
       22  1    1    2    0    0 +2.5467406041e+01 -2.9012201577e+00 +2.2186005288e+00 2.5727962165e+01 0.0000000000e+00 0.0000e+00 1.0000e+00
       22  1    1    2    0    0 -1.5560308039e+03 -1.9808225440e+03 +3.3282051447e+03 4.1739476876e+03 0.0000000000e+00 0.0000e+00 -1.0000e+00
</event>
<event>
 6      1 +1.4834189e-01 1.00005700e+04 7.81653100e-03 6.93869100e-02
  1000022 -1    0    0    0    0 +0.0000000000e+00 +0.0000000000e+00 +4.4721471353e+01 1.0000100000e+04 1.0000000000e+04 0.0000e+00 1.0000e+00
  1000022 -1    0    0    0    0 -0.0000000000e+00 -0.0000000000e+00 -4.4721471353e+01 1.0000100000e+04 1.0000000000e+04 0.0000e+00 1.0000e+00
      -24  1    1    2    0    0 -6.4486245805e+03 -7.2884580282e+03 +1.7072073849e+03 9.8806532747e+03 7.9829010000e+01 0.0000e+00 -1.0000e+00
       24  1    1    2    0    0 +4.9380371667e+03 +5.5348899702e+03 -1.2509779922e+03 7.5226681869e+03 7.9829010000e+01 0.0000e+00 -1.0000e+00
       22  1    1    2    0    0 -7.6102784623e+01 -8.9655798852e+01 +1.8046247257e+01 1.1897673359e+02 0.0000000000e+00 0.0000e+00 1.0000e+00
       22  1    1    2    0    0 +1.5866901983e+03 +1.8432238568e+03 -4.7427563998e+02 2.4779018048e+03 0.0000000000e+00 0.0000e+00 -1.0000e+00
</event>
<event>
 6      1 +1.4834189e-01 1.00114400e+04 7.81653100e-03 6.93803500e-02
  1000022 -1    0    0    0    0 +0.0000000000e+00 +0.0000000000e+00 +4.4721471353e+01 1.0000100000e+04 1.0000000000e+04 0.0000e+00 1.0000e+00
  1000022 -1    0    0    0    0 -0.0000000000e+00 -0.0000000000e+00 -4.4721471353e+01 1.0000100000e+04 1.0000000000e+04 0.0000e+00 1.0000e+00
      -24  1    1    2    0    0 +8.9292845058e+03 -9.7994524774e+02 +1.5363209216e+03 9.1136748416e+03 7.9829010000e+01 0.0000e+00 -1.0000e+00
       24  1    1    2    0    0 -8.0248868661e+03 +1.1743511537e+03 -1.2830156511e+03 8.2116022601e+03 7.9829010000e+01 0.0000e+00 -1.0000e+00
       22  1    1    2    0    0 -1.7376686135e+03 -3.4787921030e+01 -4.6767286366e+02 1.7998389698e+03 0.0000000000e+00 0.0000e+00 -1.0000e+00
       22  1    1    2    0    0 +8.3327097382e+02 -1.5961798494e+02 +2.1436759319e+02 8.7508392851e+02 0.0000000000e+00 0.0000e+00 -1.0000e+00
</event>
<event>
 6      1 +1.4834189e-01 1.01860200e+04 7.81653100e-03 6.92761400e-02
  1000022 -1    0    0    0    0 +0.0000000000e+00 +0.0000000000e+00 +4.4721471353e+01 1.0000100000e+04 1.0000000000e+04 0.0000e+00 -1.0000e+00
  1000022 -1    0    0    0    0 -0.0000000000e+00 -0.0000000000e+00 -4.4721471353e+01 1.0000100000e+04 1.0000000000e+04 0.0000e+00 -1.0000e+00
      -24  1    1    2    0    0 -1.0853762882e+03 +1.3624822865e+03 -2.0957442066e+03 2.7263374916e+03 7.9829010000e+01 0.0000e+00 -1.0000e+00
       24  1    1    2    0    0 +4.1520848663e+03 -4.8268456528e+03 +7.1512243575e+03 9.5752091452e+03 7.9829010000e+01 0.0000e+00 -1.0000e+00
       22  1    1    2    0    0 -4.0929552546e+02 -3.3495355711e+02 +3.0557007719e+02 6.1081076011e+02 0.0000000000e+00 0.0000e+00 -1.0000e+00
       22  1    1    2    0    0 -2.6574130527e+03 +3.7993169234e+03 -5.3610502281e+03 7.0878426030e+03 0.0000000000e+00 0.0000e+00 -1.0000e+00
</event>
<event>
 6      1 +1.4834189e-01 1.00003500e+04 7.81653100e-03 6.93870500e-02
  1000022 -1    0    0    0    0 +0.0000000000e+00 +0.0000000000e+00 +4.4721471353e+01 1.0000100000e+04 1.0000000000e+04 0.0000e+00 -1.0000e+00
  1000022 -1    0    0    0    0 -0.0000000000e+00 -0.0000000000e+00 -4.4721471353e+01 1.0000100000e+04 1.0000000000e+04 0.0000e+00 -1.0000e+00
      -24  1    1    2    0    0 +9.3812290893e+03 +1.7203457345e+03 +2.3234343212e+03 9.8169123653e+03 7.9829010000e+01 0.0000e+00 1.0000e+00
       24  1    1    2    0    0 -9.5412691700e+03 -1.7501133802e+03 -2.3748060205e+03 9.9872313743e+03 7.9829010000e+01 0.0000e+00 1.0000e+00
       22  1    1    2    0    0 -1.2862912170e+01 +2.0270022601e+00 -1.5656245193e+00 1.3115427091e+01 0.0000000000e+00 0.0000e+00 1.0000e+00
       22  1    1    2    0    0 +1.7290299291e+02 +2.7740643435e+01 +5.2937323807e+01 1.8294083335e+02 0.0000000000e+00 0.0000e+00 -1.0000e+00
</event>
<event>
 6      1 +1.4834189e-01 1.00415500e+04 7.81653100e-03 6.93622300e-02
  1000022 -1    0    0    0    0 +0.0000000000e+00 +0.0000000000e+00 +4.4721471353e+01 1.0000100000e+04 1.0000000000e+04 0.0000e+00 1.0000e+00
  1000022 -1    0    0    0    0 -0.0000000000e+00 -0.0000000000e+00 -4.4721471353e+01 1.0000100000e+04 1.0000000000e+04 0.0000e+00 1.0000e+00
      -24  1    1    2    0    0 -1.5603926516e+03 +8.6564070230e+02 +1.1432354962e+03 2.1207355147e+03 7.9829010000e+01 0.0000e+00 1.0000e+00
       24  1    1    2    0    0 +7.7589208092e+03 -3.6197154041e+03 -5.0857881186e+03 9.9586547881e+03 7.9829010000e+01 0.0000e+00 -1.0000e+00
       22  1    1    2    0    0 -8.3144967354e+02 +9.7879810511e+01 +7.9983430237e+02 1.1578531548e+03 0.0000000000e+00 0.0000e+00 -1.0000e+00
       22  1    1    2    0    0 -5.3670784841e+03 +2.6561948913e+03 +3.1427183199e+03 6.7629565424e+03 0.0000000000e+00 0.0000e+00 -1.0000e+00
</event>
<event>
 6      1 +1.4834189e-01 8.78511400e+03 7.81653100e-03 7.01784100e-02
  1000022 -1    0    0    0    0 +0.0000000000e+00 +0.0000000000e+00 +4.4721471353e+01 1.0000100000e+04 1.0000000000e+04 0.0000e+00 -1.0000e+00
  1000022 -1    0    0    0    0 -0.0000000000e+00 -0.0000000000e+00 -4.4721471353e+01 1.0000100000e+04 1.0000000000e+04 0.0000e+00 -1.0000e+00
      -24  1    1    2    0    0 +2.0306063805e+03 -7.9841429570e+02 -7.0093710326e+02 2.2931448174e+03 7.9829010000e+01 0.0000e+00 1.0000e+00
       24  1    1    2    0    0 -3.7027407357e+03 -2.9096138643e+03 +8.0224424348e+03 9.3028004969e+03 7.9829010000e+01 0.0000e+00 -1.0000e+00
       22  1    1    2    0    0 +1.6939562215e+03 +3.7091737163e+03 -7.3236260007e+03 8.3823001101e+03 0.0000000000e+00 0.0000e+00 -1.0000e+00
       22  1    1    2    0    0 -2.1821866302e+01 -1.1455562616e+00 +2.1206691306e+00 2.1954575505e+01 0.0000000000e+00 0.0000e+00 1.0000e+00
</event>
<event>
 6      1 +1.4834189e-01 1.00102400e+04 7.81653100e-03 6.93810800e-02
  1000022 -1    0    0    0    0 +0.0000000000e+00 +0.0000000000e+00 +4.4721471353e+01 1.0000100000e+04 1.0000000000e+04 0.0000e+00 1.0000e+00
  1000022 -1    0    0    0    0 -0.0000000000e+00 -0.0000000000e+00 -4.4721471353e+01 1.0000100000e+04 1.0000000000e+04 0.0000e+00 1.0000e+00
      -24  1    1    2    0    0 +6.2440420457e+02 -3.4273691891e+03 -2.1581692039e+03 4.0988787678e+03 7.9829010000e+01 0.0000e+00 1.0000e+00
       24  1    1    2    0    0 -8.8234911807e+02 +8.5385589183e+03 +5.1095430633e+03 9.9899615291e+03 7.9829010000e+01 0.0000e+00 1.0000e+00
       22  1    1    2    0    0 +2.6581651469e+02 -5.0965726067e+03 -2.9498544057e+03 5.8946884371e+03 0.0000000000e+00 0.0000e+00 1.0000e+00
       22  1    1    2    0    0 -7.8716011847e+00 -1.4617122402e+01 -1.5194536676e+00 1.6671266057e+01 0.0000000000e+00 0.0000e+00 1.0000e+00
</event>
<event>
 6      1 +1.4834189e-01 1.00161300e+04 7.81653100e-03 6.93775300e-02
  1000022 -1    0    0    0    0 +0.0000000000e+00 +0.0000000000e+00 +4.4721471353e+01 1.0000100000e+04 1.0000000000e+04 0.0000e+00 -1.0000e+00
  1000022 -1    0    0    0    0 -0.0000000000e+00 -0.0000000000e+00 -4.4721471353e+01 1.0000100000e+04 1.0000000000e+04 0.0000e+00 -1.0000e+00
      -24  1    1    2    0    0 -4.2445356803e+03 +4.8647037741e+03 +1.4921628311e+02 6.4583329212e+03 7.9829010000e+01 0.0000e+00 1.0000e+00
       24  1    1    2    0    0 +6.8325355650e+03 -7.2353307439e+03 +2.2373778178e+02 9.9543952346e+03 7.9829010000e+01 0.0000e+00 1.0000e+00
       22  1    1    2    0    0 +2.0659566813e+01 -2.0567704966e+01 -5.5686050215e+00 2.9679244437e+01 0.0000000000e+00 0.0000e+00 1.0000e+00
       22  1    1    2    0    0 -2.6086594515e+03 +2.3911946748e+03 -3.6738545987e+02 3.5577925998e+03 0.0000000000e+00 0.0000e+00 1.0000e+00
</event>
<event>
 6      1 +1.4834189e-01 1.00687600e+04 7.81653100e-03 6.93459000e-02
  1000022 -1    0    0    0    0 +0.0000000000e+00 +0.0000000000e+00 +4.4721471353e+01 1.0000100000e+04 1.0000000000e+04 0.0000e+00 1.0000e+00
  1000022 -1    0    0    0    0 -0.0000000000e+00 -0.0000000000e+00 -4.4721471353e+01 1.0000100000e+04 1.0000000000e+04 0.0000e+00 1.0000e+00
      -24  1    1    2    0    0 +1.2190682604e+03 +6.8427110891e+03 +6.9505077523e+03 9.8297890699e+03 7.9829010000e+01 0.0000e+00 -1.0000e+00
       24  1    1    2    0    0 +1.2907408448e+01 -4.3732044332e+03 -4.5596852213e+03 6.3184005575e+03 7.9829010000e+01 0.0000e+00 -1.0000e+00
       22  1    1    2    0    0 +1.1710193156e+01 +6.9982906136e+01 +7.2793864878e+01 1.0165472217e+02 0.0000000000e+00 0.0000e+00 -1.0000e+00
       22  1    1    2    0    0 -1.2436858621e+03 -2.5394895620e+03 -2.4636163959e+03 3.7503556505e+03 0.0000000000e+00 0.0000e+00 -1.0000e+00
</event>
<event>
 6      1 +1.4834189e-01 8.92370200e+03 7.81653100e-03 7.00818400e-02
  1000022 -1    0    0    0    0 +0.0000000000e+00 +0.0000000000e+00 +4.4721471353e+01 1.0000100000e+04 1.0000000000e+04 0.0000e+00 -1.0000e+00
  1000022 -1    0    0    0    0 -0.0000000000e+00 -0.0000000000e+00 -4.4721471353e+01 1.0000100000e+04 1.0000000000e+04 0.0000e+00 -1.0000e+00
      -24  1    1    2    0    0 +7.6290460143e+00 +8.1217305288e+01 -6.0108576620e+01 1.2899676291e+02 7.9829010000e+01 0.0000e+00 -1.0000e+00
       24  1    1    2    0    0 -3.7457074431e+03 -4.0101892712e+02 +8.1429034068e+03 8.9724238082e+03 7.9829010000e+01 0.0000e+00 1.0000e+00
       22  1    1    2    0    0 -9.0431993597e+02 +1.6105148883e+03 -4.9825035310e+02 1.9130619871e+03 0.0000000000e+00 0.0000e+00 1.0000e+00
       22  1    1    2    0    0 +4.6423983331e+03 -1.2907132665e+03 -7.5845444771e+03 8.9857174418e+03 0.0000000000e+00 0.0000e+00 1.0000e+00
</event>
<event>
 6      1 +1.4834189e-01 1.00396400e+04 7.81653100e-03 6.93633800e-02
  1000022 -1    0    0    0    0 +0.0000000000e+00 +0.0000000000e+00 +4.4721471353e+01 1.0000100000e+04 1.0000000000e+04 0.0000e+00 -1.0000e+00
  1000022 -1    0    0    0    0 -0.0000000000e+00 -0.0000000000e+00 -4.4721471353e+01 1.0000100000e+04 1.0000000000e+04 0.0000e+00 -1.0000e+00
      -24  1    1    2    0    0 +3.0884139705e+03 -1.5047129721e+03 -8.6801578268e+03 9.3356293066e+03 7.9829010000e+01 0.0000e+00 -1.0000e+00
       24  1    1    2    0    0 -3.1542983432e+03 +1.6198188648e+03 +9.1043424937e+03 9.7708155293e+03 7.9829010000e+01 0.0000e+00 -1.0000e+00
       22  1    1    2    0    0 -1.9038247998e+02 -1.2155239939e+02 +1.4575313679e+02 2.6882048167e+02 0.0000000000e+00 0.0000e+00 1.0000e+00
       22  1    1    2    0    0 +2.5626685273e+02 +6.4465066413e+00 -5.6993780368e+02 6.2493468244e+02 0.0000000000e+00 0.0000e+00 -1.0000e+00
</event>
<event>
 6      1 +1.4834189e-01 1.00925700e+04 7.81653100e-03 6.93316600e-02
  1000022 -1    0    0    0    0 +0.0000000000e+00 +0.0000000000e+00 +4.4721471353e+01 1.0000100000e+04 1.0000000000e+04 0.0000e+00 1.0000e+00
  1000022 -1    0    0    0    0 -0.0000000000e+00 -0.0000000000e+00 -4.4721471353e+01 1.0000100000e+04 1.0000000000e+04 0.0000e+00 1.0000e+00
      -24  1    1    2    0    0 -4.6858816617e+02 -3.9564565298e+03 -9.0353975111e+03 9.8751153916e+03 7.9829010000e+01 0.0000e+00 1.0000e+00
       24  1    1    2    0    0 -3.6040158662e+01 +3.5778163016e+03 +8.5591057656e+03 9.2772157762e+03 7.9829010000e+01 0.0000e+00 1.0000e+00
       22  1    1    2    0    0 +3.2290263264e-02 -1.5243200169e+01 -2.8721821466e+01 3.2516137876e+01 0.0000000000e+00 0.0000e+00 -1.0000e+00
       22  1    1    2    0    0 +5.0459603457e+02 +3.9388342837e+02 +5.0501356701e+02 8.1535269431e+02 0.0000000000e+00 0.0000e+00 -1.0000e+00
</event>
<event>
 6      1 +1.4834189e-01 1.00543400e+04 7.81653100e-03 6.93545400e-02
  1000022 -1    0    0    0    0 +0.0000000000e+00 +0.0000000000e+00 +4.4721471353e+01 1.0000100000e+04 1.0000000000e+04 0.0000e+00 -1.0000e+00
  1000022 -1    0    0    0    0 -0.0000000000e+00 -0.0000000000e+00 -4.4721471353e+01 1.0000100000e+04 1.0000000000e+04 0.0000e+00 -1.0000e+00
      -24  1    1    2    0    0 -3.3786435140e+03 +4.9618975050e+03 -7.9295649959e+03 9.9458550432e+03 7.9829010000e+01 0.0000e+00 1.0000e+00
       24  1    1    2    0    0 +6.5655005170e+02 -2.0527733327e+02 +8.4023631412e+02 1.0888372185e+03 7.9829010000e+01 0.0000e+00 1.0000e+00
       22  1    1    2    0    0 +2.6916979461e+03 -4.7453447751e+03 +7.0543966633e+03 8.9178499175e+03 0.0000000000e+00 0.0000e+00 1.0000e+00
       22  1    1    2    0    0 +3.0395516240e+01 -1.1275396651e+01 +3.4932018397e+01 4.7657820832e+01 0.0000000000e+00 0.0000e+00 -1.0000e+00
</event>
<event>
 6      1 +1.4834189e-01 1.00720200e+04 7.81653100e-03 6.93439500e-02
  1000022 -1    0    0    0    0 +0.0000000000e+00 +0.0000000000e+00 +4.4721471353e+01 1.0000100000e+04 1.0000000000e+04 0.0000e+00 -1.0000e+00
  1000022 -1    0    0    0    0 -0.0000000000e+00 -0.0000000000e+00 -4.4721471353e+01 1.0000100000e+04 1.0000000000e+04 0.0000e+00 -1.0000e+00
      -24  1    1    2    0    0 -5.7880283984e+03 +2.7028975704e+03 -7.5997036546e+03 9.9281819245e+03 7.9829010000e+01 0.0000e+00 -1.0000e+00
       24  1    1    2    0    0 +1.4338906465e+03 -3.7776813093e+02 +2.8256498898e+03 3.1920872666e+03 7.9829010000e+01 0.0000e+00 -1.0000e+00
       22  1    1    2    0    0 +4.3347786499e+03 -2.3348697713e+03 +4.7742834900e+03 6.8582582072e+03 0.0000000000e+00 0.0000e+00 -1.0000e+00
       22  1    1    2    0    0 +1.9359101928e+01 +9.7403318596e+00 -2.2972532294e-01 2.1672601734e+01 0.0000000000e+00 0.0000e+00 -1.0000e+00
</event>
<event>
 6      1 +1.4834189e-01 1.00017100e+04 7.81653100e-03 6.93862200e-02
  1000022 -1    0    0    0    0 +0.0000000000e+00 +0.0000000000e+00 +4.4721471353e+01 1.0000100000e+04 1.0000000000e+04 0.0000e+00 -1.0000e+00
  1000022 -1    0    0    0    0 -0.0000000000e+00 -0.0000000000e+00 -4.4721471353e+01 1.0000100000e+04 1.0000000000e+04 0.0000e+00 -1.0000e+00
      -24  1    1    2    0    0 -4.8322056847e+02 +8.0290959055e+02 +9.9116952022e+03 9.9562161678e+03 7.9829010000e+01 0.0000e+00 -1.0000e+00
       24  1    1    2    0    0 +4.7356097751e+02 -6.1714201484e+02 -8.9676292173e+03 9.0016593312e+03 7.9829010000e+01 0.0000e+00 -1.0000e+00
       22  1    1    2    0    0 +2.9254762028e+01 -1.9281771401e+02 -9.8085218805e+02 1.0000527620e+03 0.0000000000e+00 0.0000e+00 1.0000e+00
       22  1    1    2    0    0 -1.9595171062e+01 +7.0501382981e+00 +3.6786203112e+01 4.2271739003e+01 0.0000000000e+00 0.0000e+00 1.0000e+00
</event>
<event>
 6      1 +1.4834189e-01 1.00001200e+04 7.81653100e-03 6.93871800e-02
  1000022 -1    0    0    0    0 +0.0000000000e+00 +0.0000000000e+00 +4.4721471353e+01 1.0000100000e+04 1.0000000000e+04 0.0000e+00 -1.0000e+00
  1000022 -1    0    0    0    0 -0.0000000000e+00 -0.0000000000e+00 -4.4721471353e+01 1.0000100000e+04 1.0000000000e+04 0.0000e+00 -1.0000e+00
      -24  1    1    2    0    0 +7.6974701469e+03 +1.0428218562e+03 -5.5723777604e+03 9.5601407239e+03 7.9829010000e+01 0.0000e+00 -1.0000e+00
       24  1    1    2    0    0 -7.9923787336e+03 -1.0828996111e+03 +5.7976244903e+03 9.9332578639e+03 7.9829010000e+01 0.0000e+00 -1.0000e+00
       22  1    1    2    0    0 -5.4372775763e+01 -4.3263091085e+00 +3.8598339580e+01 6.6820262742e+01 0.0000000000e+00 0.0000e+00 -1.0000e+00
       22  1    1    2    0    0 +3.4928136251e+02 +4.4404063996e+01 -2.6384506956e+02 4.3998114940e+02 0.0000000000e+00 0.0000e+00 1.0000e+00
</event>
<event>
 6      1 +1.4834189e-01 1.06614800e+04 7.81653100e-03 6.90026600e-02
  1000022 -1    0    0    0    0 +0.0000000000e+00 +0.0000000000e+00 +4.4721471353e+01 1.0000100000e+04 1.0000000000e+04 0.0000e+00 -1.0000e+00
  1000022 -1    0    0    0    0 -0.0000000000e+00 -0.0000000000e+00 -4.4721471353e+01 1.0000100000e+04 1.0000000000e+04 0.0000e+00 -1.0000e+00
      -24  1    1    2    0    0 -4.2462503737e+03 +8.2934698080e+03 +1.9730821353e+02 9.3197417826e+03 7.9829010000e+01 0.0000e+00 -1.0000e+00
       24  1    1    2    0    0 -2.7970278426e+02 -5.0913654094e+03 -4.0905715482e+01 5.0998314999e+03 7.9829010000e+01 0.0000e+00 -1.0000e+00
       22  1    1    2    0    0 -1.4650300418e+01 +6.2441554542e+00 -1.0324907152e+01 1.8979580801e+01 0.0000000000e+00 0.0000e+00 -1.0000e+00
       22  1    1    2    0    0 +4.5406034583e+03 -3.2083485541e+03 -1.4607759090e+02 5.5616471367e+03 0.0000000000e+00 0.0000e+00 -1.0000e+00
</event>
<event>
 6      1 +1.4834189e-01 1.00003700e+04 7.81653100e-03 6.93870300e-02
  1000022 -1    0    0    0    0 +0.0000000000e+00 +0.0000000000e+00 +4.4721471353e+01 1.0000100000e+04 1.0000000000e+04 0.0000e+00 -1.0000e+00
  1000022 -1    0    0    0    0 -0.0000000000e+00 -0.0000000000e+00 -4.4721471353e+01 1.0000100000e+04 1.0000000000e+04 0.0000e+00 -1.0000e+00
      -24  1    1    2    0    0 -7.8879365652e+03 -3.0094596020e+03 +5.0833640362e+03 9.8551181092e+03 7.9829010000e+01 0.0000e+00 -1.0000e+00
       24  1    1    2    0    0 +7.9006916948e+03 +3.0016032718e+03 -5.0948273123e+03 9.8688494502e+03 7.9829010000e+01 0.0000e+00 -1.0000e+00
       22  1    1    2    0    0 -1.1891730538e+02 -3.1848278917e+01 +7.7096726305e+01 1.4525681945e+02 0.0000000000e+00 0.0000e+00 1.0000e+00
       22  1    1    2    0    0 +1.0616217581e+02 +3.9704609125e+01 -6.5633450133e+01 1.3097562114e+02 0.0000000000e+00 0.0000e+00 1.0000e+00
</event>
<event>
 6      1 +1.4834189e-01 1.03278400e+04 7.81653100e-03 6.91930200e-02
  1000022 -1    0    0    0    0 +0.0000000000e+00 +0.0000000000e+00 +4.4721471353e+01 1.0000100000e+04 1.0000000000e+04 0.0000e+00 1.0000e+00
  1000022 -1    0    0    0    0 -0.0000000000e+00 -0.0000000000e+00 -4.4721471353e+01 1.0000100000e+04 1.0000000000e+04 0.0000e+00 1.0000e+00
      -24  1    1    2    0    0 -3.0501339124e+03 -2.5395108197e+03 -8.8201856146e+03 9.6723564365e+03 7.9829010000e+01 0.0000e+00 -1.0000e+00
       24  1    1    2    0    0 +2.1080012623e+03 +2.1063789690e+03 +8.4457728087e+03 8.9564475485e+03 7.9829010000e+01 0.0000e+00 -1.0000e+00
       22  1    1    2    0    0 +8.4083038991e+02 +3.2105726149e+02 -6.9266139737e+01 9.0270222547e+02 0.0000000000e+00 0.0000e+00 -1.0000e+00
       22  1    1    2    0    0 +1.0130226021e+02 +1.1207458922e+02 +4.4367894571e+02 4.6869378953e+02 0.0000000000e+00 0.0000e+00 -1.0000e+00
</event>
<event>
 6      1 +1.4834189e-01 1.00399800e+04 7.81653100e-03 6.93631700e-02
  1000022 -1    0    0    0    0 +0.0000000000e+00 +0.0000000000e+00 +4.4721471353e+01 1.0000100000e+04 1.0000000000e+04 0.0000e+00 1.0000e+00
  1000022 -1    0    0    0    0 -0.0000000000e+00 -0.0000000000e+00 -4.4721471353e+01 1.0000100000e+04 1.0000000000e+04 0.0000e+00 1.0000e+00
      -24  1    1    2    0    0 +7.7693661693e+03 -1.5820539852e+01 +5.8678070672e+03 9.7365719538e+03 7.9829010000e+01 0.0000e+00 -1.0000e+00
       24  1    1    2    0    0 -7.8320700085e+03 +2.8013016313e+02 -6.0316520909e+03 9.8897418138e+03 7.9829010000e+01 0.0000e+00 -1.0000e+00
       22  1    1    2    0    0 -6.1609691244e+01 -2.9648480567e+01 +1.7082635102e+01 7.0474129133e+01 0.0000000000e+00 0.0000e+00 -1.0000e+00
       22  1    1    2    0    0 +1.2431353046e+02 -2.3466114271e+02 +1.4676238856e+02 3.0341210334e+02 0.0000000000e+00 0.0000e+00 -1.0000e+00
</event>
<event>
 6      1 +1.4834189e-01 1.00001200e+04 7.81653100e-03 6.93871800e-02
  1000022 -1    0    0    0    0 +0.0000000000e+00 +0.0000000000e+00 +4.4721471353e+01 1.0000100000e+04 1.0000000000e+04 0.0000e+00 1.0000e+00
  1000022 -1    0    0    0    0 -0.0000000000e+00 -0.0000000000e+00 -4.4721471353e+01 1.0000100000e+04 1.0000000000e+04 0.0000e+00 1.0000e+00
      -24  1    1    2    0    0 +3.9347806493e+03 -9.0251047515e+03 -1.5406095516e+03 9.9656843716e+03 7.9829010000e+01 0.0000e+00 1.0000e+00
       24  1    1    2    0    0 -3.9427765830e+03 +9.0463658587e+03 +1.5458429088e+03 9.9889051153e+03 7.9829010000e+01 0.0000e+00 1.0000e+00
       22  1    1    2    0    0 +1.3205700774e+01 -3.1137540332e+01 -6.2620771978e+00 3.4396955704e+01 0.0000000000e+00 0.0000e+00 1.0000e+00
       22  1    1    2    0    0 -5.2097670162e+00 +9.8764331223e+00 +1.0287199545e+00 1.1213557345e+01 0.0000000000e+00 0.0000e+00 1.0000e+00
</event>
<event>
 6      1 +1.4834189e-01 1.00026600e+04 7.81653100e-03 6.93856500e-02
  1000022 -1    0    0    0    0 +0.0000000000e+00 +0.0000000000e+00 +4.4721471353e+01 1.0000100000e+04 1.0000000000e+04 0.0000e+00 1.0000e+00
  1000022 -1    0    0    0    0 -0.0000000000e+00 -0.0000000000e+00 -4.4721471353e+01 1.0000100000e+04 1.0000000000e+04 0.0000e+00 1.0000e+00
      -24  1    1    2    0    0 -3.5017423349e+02 -1.6844882041e+02 -1.0407024268e+02 4.1012228073e+02 7.9829010000e+01 0.0000e+00 0.0000e+00
       24  1    1    2    0    0 +8.2066142366e+03 +4.9479744751e+03 +2.6763993955e+03 9.9498972372e+03 7.9829010000e+01 0.0000e+00 -1.0000e+00
       22  1    1    2    0    0 -7.8953846175e+03 -4.8060809996e+03 -2.5653914101e+03 9.5925359483e+03 0.0000000000e+00 0.0000e+00 -1.0000e+00
       22  1    1    2    0    0 +3.8944614317e+01 +2.6555344883e+01 -6.9377427614e+00 4.7644533797e+01 0.0000000000e+00 0.0000e+00 -1.0000e+00
</event>
<event>
 6      1 +1.4834189e-01 1.00435300e+04 7.81653100e-03 6.93610400e-02
  1000022 -1    0    0    0    0 +0.0000000000e+00 +0.0000000000e+00 +4.4721471353e+01 1.0000100000e+04 1.0000000000e+04 0.0000e+00 -1.0000e+00
  1000022 -1    0    0    0    0 -0.0000000000e+00 -0.0000000000e+00 -4.4721471353e+01 1.0000100000e+04 1.0000000000e+04 0.0000e+00 -1.0000e+00
      -24  1    1    2    0    0 +8.6903187330e+03 +3.2456056318e+03 +3.6157110427e+03 9.9566728687e+03 7.9829010000e+01 0.0000e+00 1.0000e+00
       24  1    1    2    0    0 -7.9714274721e+03 -3.1819655855e+03 -2.9971128888e+03 9.0916235772e+03 7.9829010000e+01 0.0000e+00 1.0000e+00
       22  1    1    2    0    0 -7.0217037820e+02 -5.6667544535e+01 -6.0997757324e+02 9.3184070016e+02 0.0000000000e+00 0.0000e+00 1.0000e+00
       22  1    1    2    0    0 -1.6720882640e+01 -6.9725017412e+00 -8.6205806975e+00 2.0062853943e+01 0.0000000000e+00 0.0000e+00 1.0000e+00
</event>
<event>
 6      1 +1.4834189e-01 1.00164500e+04 7.81653100e-03 6.93773300e-02
  1000022 -1    0    0    0    0 +0.0000000000e+00 +0.0000000000e+00 +4.4721471353e+01 1.0000100000e+04 1.0000000000e+04 0.0000e+00 -1.0000e+00
  1000022 -1    0    0    0    0 -0.0000000000e+00 -0.0000000000e+00 -4.4721471353e+01 1.0000100000e+04 1.0000000000e+04 0.0000e+00 -1.0000e+00
      -24  1    1    2    0    0 +8.6088582657e+03 +5.0513842828e+03 -1.9981672118e+02 9.9837479538e+03 7.9829010000e+01 0.0000e+00 -1.0000e+00
       24  1    1    2    0    0 -8.4934032440e+03 -5.0056853293e+03 +1.8247099399e+02 9.8607531465e+03 7.9829010000e+01 0.0000e+00 -1.0000e+00
       22  1    1    2    0    0 +1.0354672663e+01 -2.5033736815e+01 +5.5993081425e+00 2.7663323672e+01 0.0000000000e+00 0.0000e+00 -1.0000e+00
       22  1    1    2    0    0 -1.2580969436e+02 -2.0665216734e+01 +1.1746419052e+01 1.2803557607e+02 0.0000000000e+00 0.0000e+00 1.0000e+00
</event>
<event>
 6      1 +1.4834189e-01 1.02248300e+04 7.81653100e-03 6.92532600e-02
  1000022 -1    0    0    0    0 +0.0000000000e+00 +0.0000000000e+00 +4.4721471353e+01 1.0000100000e+04 1.0000000000e+04 0.0000e+00 -1.0000e+00
  1000022 -1    0    0    0    0 -0.0000000000e+00 -0.0000000000e+00 -4.4721471353e+01 1.0000100000e+04 1.0000000000e+04 0.0000e+00 -1.0000e+00
      -24  1    1    2    0    0 +4.3612042575e+03 +2.9084718464e+03 -7.9608184983e+03 9.5320677133e+03 7.9829010000e+01 0.0000e+00 1.0000e+00
       24  1    1    2    0    0 -2.4422793368e+03 +1.1590823470e+02 +2.7586011408e+03 3.6870606182e+03 7.9829010000e+01 0.0000e+00 1.0000e+00
       22  1    1    2    0    0 -2.0645583895e+03 -3.0658000983e+03 +5.3926691507e+03 6.5377681326e+03 0.0000000000e+00 0.0000e+00 1.0000e+00
       22  1    1    2    0    0 +1.4563346883e+02 +4.1420017199e+01 -1.9045179314e+02 2.4330353589e+02 0.0000000000e+00 0.0000e+00 -1.0000e+00
</event>
<event>
 6      1 +1.4834189e-01 1.01254300e+04 7.81653100e-03 6.93120700e-02
  1000022 -1    0    0    0    0 +0.0000000000e+00 +0.0000000000e+00 +4.4721471353e+01 1.0000100000e+04 1.0000000000e+04 0.0000e+00 -1.0000e+00
  1000022 -1    0    0    0    0 -0.0000000000e+00 -0.0000000000e+00 -4.4721471353e+01 1.0000100000e+04 1.0000000000e+04 0.0000e+00 -1.0000e+00
      -24  1    1    2    0    0 -3.0549624944e+03 +7.9469261504e+03 -5.0018224155e+03 9.8747674013e+03 7.9829010000e+01 0.0000e+00 -1.0000e+00
       24  1    1    2    0    0 +2.8130785284e+03 -6.2975274749e+03 +4.2270199363e+03 8.0898908099e+03 7.9829010000e+01 0.0000e+00 -1.0000e+00
       22  1    1    2    0    0 +2.9743933510e+02 -7.5937031839e+01 +1.4985006619e+02 3.4160157084e+02 0.0000000000e+00 0.0000e+00 1.0000e+00
       22  1    1    2    0    0 -5.5555369071e+01 -1.5734616437e+03 +6.2495241307e+02 1.6939402179e+03 0.0000000000e+00 0.0000e+00 -1.0000e+00
</event>
<event>
 6      1 +1.4834189e-01 1.01860100e+04 7.81653100e-03 6.92761500e-02
  1000022 -1    0    0    0    0 +0.0000000000e+00 +0.0000000000e+00 +4.4721471353e+01 1.0000100000e+04 1.0000000000e+04 0.0000e+00 -1.0000e+00
  1000022 -1    0    0    0    0 -0.0000000000e+00 -0.0000000000e+00 -4.4721471353e+01 1.0000100000e+04 1.0000000000e+04 0.0000e+00 -1.0000e+00
      -24  1    1    2    0    0 -4.0963015428e+03 -3.3507318668e+03 -6.9977623872e+03 8.7739467443e+03 7.9829010000e+01 0.0000e+00 -1.0000e+00
       24  1    1    2    0    0 +5.4276434631e+03 +3.5515444034e+03 +7.3023242018e+03 9.7674506720e+03 7.9829010000e+01 0.0000e+00 -1.0000e+00
       22  1    1    2    0    0 +2.1087354990e+01 +1.6961106897e+01 +3.8111150187e+01 4.6742009544e+01 0.0000000000e+00 0.0000e+00 -1.0000e+00
       22  1    1    2    0    0 -1.3524292752e+03 -2.1777364354e+02 -3.4267296474e+02 1.4120605742e+03 0.0000000000e+00 0.0000e+00 1.0000e+00
</event>
<event>
 6      1 +1.4834189e-01 1.00010400e+04 7.81653100e-03 6.93866300e-02
  1000022 -1    0    0    0    0 +0.0000000000e+00 +0.0000000000e+00 +4.4721471353e+01 1.0000100000e+04 1.0000000000e+04 0.0000e+00 -1.0000e+00
  1000022 -1    0    0    0    0 -0.0000000000e+00 -0.0000000000e+00 -4.4721471353e+01 1.0000100000e+04 1.0000000000e+04 0.0000e+00 -1.0000e+00
      -24  1    1    2    0    0 -3.6308547382e+03 -6.3557867152e+03 -6.6984796728e+03 9.9224560214e+03 7.9829010000e+01 0.0000e+00 -1.0000e+00
       24  1    1    2    0    0 +5.5516904278e+02 +9.2476049043e+02 +9.9938350849e+02 1.4725945466e+03 7.9829010000e+01 0.0000e+00 0.0000e+00
       22  1    1    2    0    0 -2.3862807131e+01 -4.7295581339e+01 -5.5477122329e+01 7.6707344370e+01 0.0000000000e+00 0.0000e+00 1.0000e+00
       22  1    1    2    0    0 +3.0995485026e+03 +5.4783218061e+03 +5.7545732867e+03 8.5284420876e+03 0.0000000000e+00 0.0000e+00 -1.0000e+00
</event>
<event>
 6      1 +1.4834189e-01 1.00237700e+04 7.81653100e-03 6.93729200e-02
  1000022 -1    0    0    0    0 +0.0000000000e+00 +0.0000000000e+00 +4.4721471353e+01 1.0000100000e+04 1.0000000000e+04 0.0000e+00 -1.0000e+00
  1000022 -1    0    0    0    0 -0.0000000000e+00 -0.0000000000e+00 -4.4721471353e+01 1.0000100000e+04 1.0000000000e+04 0.0000e+00 -1.0000e+00
      -24  1    1    2    0    0 -6.2730926807e+03 +6.1329537409e+03 +3.5097125878e+03 9.4492998941e+03 7.9829010000e+01 0.0000e+00 1.0000e+00
       24  1    1    2    0    0 +6.3313873010e+03 -6.3946961615e+03 -3.7916117054e+03 9.7653108577e+03 7.9829010000e+01 0.0000e+00 1.0000e+00
       22  1    1    2    0    0 -1.9663057827e+02 +3.9827526941e+02 +3.6432013502e+02 5.7447013440e+02 0.0000000000e+00 0.0000e+00 1.0000e+00
       22  1    1    2    0    0 +1.3833595800e+02 -1.3653284887e+02 -8.2421017422e+01 2.1111911379e+02 0.0000000000e+00 0.0000e+00 -1.0000e+00
</event>
<event>
 6      1 +1.4834189e-01 1.01092200e+04 7.81653100e-03 6.93217300e-02
  1000022 -1    0    0    0    0 +0.0000000000e+00 +0.0000000000e+00 +4.4721471353e+01 1.0000100000e+04 1.0000000000e+04 0.0000e+00 -1.0000e+00
  1000022 -1    0    0    0    0 -0.0000000000e+00 -0.0000000000e+00 -4.4721471353e+01 1.0000100000e+04 1.0000000000e+04 0.0000e+00 -1.0000e+00
      -24  1    1    2    0    0 -1.7134750618e+03 -3.2581385880e+02 +1.7175747431e+03 2.4492013243e+03 7.9829010000e+01 0.0000e+00 -1.0000e+00
       24  1    1    2    0    0 +5.7742382767e+03 +4.7311328163e+03 -6.4327274141e+03 9.8545319552e+03 7.9829010000e+01 0.0000e+00 -1.0000e+00
       22  1    1    2    0    0 -4.0777998121e+03 -4.4219420720e+03 +4.7427615282e+03 7.6600137016e+03 0.0000000000e+00 0.0000e+00 -1.0000e+00
       22  1    1    2    0    0 +1.7036597183e+01 +1.6623114454e+01 -2.7608857282e+01 3.6453018779e+01 0.0000000000e+00 0.0000e+00 1.0000e+00
</event>
<event>
 6      1 +1.4834189e-01 1.00108900e+04 7.81653100e-03 6.93806800e-02
  1000022 -1    0    0    0    0 +0.0000000000e+00 +0.0000000000e+00 +4.4721471353e+01 1.0000100000e+04 1.0000000000e+04 0.0000e+00 -1.0000e+00
  1000022 -1    0    0    0    0 -0.0000000000e+00 -0.0000000000e+00 -4.4721471353e+01 1.0000100000e+04 1.0000000000e+04 0.0000e+00 -1.0000e+00
      -24  1    1    2    0    0 -7.0015050653e+03 -3.1192891635e+03 -5.1828831046e+03 9.2530907275e+03 7.9829010000e+01 0.0000e+00 -1.0000e+00
       24  1    1    2    0    0 +6.6616164110e+03 +3.0856301522e+03 +4.9687128471e+03 8.8652538977e+03 7.9829010000e+01 0.0000e+00 -1.0000e+00
       22  1    1    2    0    0 -4.0218615468e+02 -3.5434775242e+02 -5.3567629679e+02 7.5780282897e+02 0.0000000000e+00 0.0000e+00 -1.0000e+00
       22  1    1    2    0    0 +7.4207480892e+02 +3.8800676379e+02 +7.4984655427e+02 1.1240525458e+03 0.0000000000e+00 0.0000e+00 1.0000e+00
</event>
<event>
 6      1 +1.4834189e-01 1.00313000e+04 7.81653100e-03 6.93683900e-02
  1000022 -1    0    0    0    0 +0.0000000000e+00 +0.0000000000e+00 +4.4721471353e+01 1.0000100000e+04 1.0000000000e+04 0.0000e+00 1.0000e+00
  1000022 -1    0    0    0    0 -0.0000000000e+00 -0.0000000000e+00 -4.4721471353e+01 1.0000100000e+04 1.0000000000e+04 0.0000e+00 1.0000e+00
      -24  1    1    2    0    0 -4.5713767345e+03 -7.8201868149e+03 +4.1617059365e+03 9.9689004429e+03 7.9829010000e+01 0.0000e+00 1.0000e+00
       24  1    1    2    0    0 +4.6251718250e+03 +7.7641571578e+03 -4.1624607214e+03 9.9502162142e+03 7.9829010000e+01 0.0000e+00 1.0000e+00
       22  1    1    2    0    0 -2.7683177901e+01 +2.9168613991e+01 -1.1228336922e+01 4.1752148818e+01 0.0000000000e+00 0.0000e+00 -1.0000e+00
       22  1    1    2    0    0 -2.6111912604e+01 +2.6861043144e+01 +1.1983121888e+01 3.9331194093e+01 0.0000000000e+00 0.0000e+00 -1.0000e+00
</event>
<event>
 6      1 +1.4834189e-01 1.01744300e+04 7.81653100e-03 6.92829900e-02
  1000022 -1    0    0    0    0 +0.0000000000e+00 +0.0000000000e+00 +4.4721471353e+01 1.0000100000e+04 1.0000000000e+04 0.0000e+00 1.0000e+00
  1000022 -1    0    0    0    0 -0.0000000000e+00 -0.0000000000e+00 -4.4721471353e+01 1.0000100000e+04 1.0000000000e+04 0.0000e+00 1.0000e+00
      -24  1    1    2    0    0 -5.1305518594e+02 +9.5289224600e+03 +2.3400320486e+03 9.8257677324e+03 7.9829010000e+01 0.0000e+00 1.0000e+00
       24  1    1    2    0    0 +1.1958556205e+03 -8.7026397922e+03 -1.8954980882e+03 8.9869514125e+03 7.9829010000e+01 0.0000e+00 1.0000e+00
       22  1    1    2    0    0 +2.1047351757e+01 -1.7794295029e+01 -1.5205552521e+00 2.7603261398e+01 0.0000000000e+00 0.0000e+00 1.0000e+00
       22  1    1    2    0    0 -7.0384778634e+02 -8.0848837277e+02 -4.4301340511e+02 1.1598775937e+03 0.0000000000e+00 0.0000e+00 1.0000e+00
</event>
<event>
 6      1 +1.4834189e-01 1.00630300e+04 7.81653100e-03 6.93493400e-02
  1000022 -1    0    0    0    0 +0.0000000000e+00 +0.0000000000e+00 +4.4721471353e+01 1.0000100000e+04 1.0000000000e+04 0.0000e+00 1.0000e+00
  1000022 -1    0    0    0    0 -0.0000000000e+00 -0.0000000000e+00 -4.4721471353e+01 1.0000100000e+04 1.0000000000e+04 0.0000e+00 1.0000e+00
      -24  1    1    2    0    0 -9.4611461506e+03 -1.3776878115e+03 -2.7073429387e+03 9.9371720649e+03 7.9829010000e+01 0.0000e+00 1.0000e+00
       24  1    1    2    0    0 +9.1769053033e+03 +1.5736535022e+03 +2.7503516620e+03 9.7089022668e+03 7.9829010000e+01 0.0000e+00 1.0000e+00
       22  1    1    2    0    0 +1.6358658426e+01 +2.1792939984e+00 +5.5379113466e+00 1.7407569902e+01 0.0000000000e+00 0.0000e+00 -1.0000e+00
       22  1    1    2    0    0 +2.6788218887e+02 -1.9814498473e+02 -4.8546634697e+01 3.3671809846e+02 0.0000000000e+00 0.0000e+00 1.0000e+00
</event>
<event>
 6      1 +1.4834189e-01 1.00001000e+04 7.81653100e-03 6.93871900e-02
  1000022 -1    0    0    0    0 +0.0000000000e+00 +0.0000000000e+00 +4.4721471353e+01 1.0000100000e+04 1.0000000000e+04 0.0000e+00 -1.0000e+00
  1000022 -1    0    0    0    0 -0.0000000000e+00 -0.0000000000e+00 -4.4721471353e+01 1.0000100000e+04 1.0000000000e+04 0.0000e+00 -1.0000e+00
      -24  1    1    2    0    0 -7.1317026747e+03 +4.1162139862e+03 -2.1096352957e+03 8.5006667017e+03 7.9829010000e+01 0.0000e+00 -1.0000e+00
       24  1    1    2    0    0 +8.3468995546e+03 -4.8341303486e+03 +2.4735885169e+03 9.9581404501e+03 7.9829010000e+01 0.0000e+00 -1.0000e+00
       22  1    1    2    0    0 -1.2502912284e+03 +7.3965089529e+02 -3.7147170122e+02 1.4994341691e+03 0.0000000000e+00 0.0000e+00 1.0000e+00
       22  1    1    2    0    0 +3.5094348456e+01 -2.1734532897e+01 +7.5184799687e+00 4.1958679136e+01 0.0000000000e+00 0.0000e+00 1.0000e+00
</event>
<event>
 6      1 +1.4834189e-01 1.00155100e+04 7.81653100e-03 6.93779000e-02
  1000022 -1    0    0    0    0 +0.0000000000e+00 +0.0000000000e+00 +4.4721471353e+01 1.0000100000e+04 1.0000000000e+04 0.0000e+00 -1.0000e+00
  1000022 -1    0    0    0    0 -0.0000000000e+00 -0.0000000000e+00 -4.4721471353e+01 1.0000100000e+04 1.0000000000e+04 0.0000e+00 -1.0000e+00
      -24  1    1    2    0    0 +9.8280687928e+02 -1.0930003344e+03 +1.1848909783e+01 1.4720978774e+03 7.9829010000e+01 0.0000e+00 0.0000e+00
       24  1    1    2    0    0 -6.8433866916e+03 +7.2433495357e+03 -2.8607918147e+01 9.9652017035e+03 7.9829010000e+01 0.0000e+00 -1.0000e+00
       22  1    1    2    0    0 +5.8433951220e+03 -6.1900892222e+03 +4.2373335386e+01 8.5125945886e+03 0.0000000000e+00 0.0000e+00 -1.0000e+00
       22  1    1    2    0    0 +1.7184690314e+01 +3.9740020880e+01 -2.5614327022e+01 5.0305830572e+01 0.0000000000e+00 0.0000e+00 -1.0000e+00
</event>
<event>
 6      1 +1.4834189e-01 1.01734200e+04 7.81653100e-03 6.92835900e-02
  1000022 -1    0    0    0    0 +0.0000000000e+00 +0.0000000000e+00 +4.4721471353e+01 1.0000100000e+04 1.0000000000e+04 0.0000e+00 -1.0000e+00
  1000022 -1    0    0    0    0 -0.0000000000e+00 -0.0000000000e+00 -4.4721471353e+01 1.0000100000e+04 1.0000000000e+04 0.0000e+00 -1.0000e+00
      -24  1    1    2    0    0 -9.1795834100e+02 +6.5466030211e+02 -8.6806386961e+02 1.4251789991e+03 7.9829010000e+01 0.0000e+00 1.0000e+00
       24  1    1    2    0    0 +7.9645668515e+03 +1.6265381623e+03 +5.4599311954e+03 9.7927101895e+03 7.9829010000e+01 0.0000e+00 -1.0000e+00
       22  1    1    2    0    0 +2.6046910092e+01 +5.1821878224e+00 +2.1343118339e+01 3.4070886346e+01 0.0000000000e+00 0.0000e+00 -1.0000e+00
       22  1    1    2    0    0 -7.0726554206e+03 -2.2863806522e+03 -4.6132104441e+03 8.7482399251e+03 0.0000000000e+00 0.0000e+00 -1.0000e+00
</event>
<event>
 6      1 +1.4834189e-01 9.32942500e+03 7.81653100e-03 6.98089700e-02
  1000022 -1    0    0    0    0 +0.0000000000e+00 +0.0000000000e+00 +4.4721471353e+01 1.0000100000e+04 1.0000000000e+04 0.0000e+00 1.0000e+00
  1000022 -1    0    0    0    0 -0.0000000000e+00 -0.0000000000e+00 -4.4721471353e+01 1.0000100000e+04 1.0000000000e+04 0.0000e+00 1.0000e+00
      -24  1    1    2    0    0 +2.6145935951e+02 +1.0804076770e+03 -6.8007066800e+02 1.3055690443e+03 7.9829010000e+01 0.0000e+00 1.0000e+00
       24  1    1    2    0    0 -4.3907515483e+01 +5.8186817462e+03 +6.5171443951e+03 8.7371922762e+03 7.9829010000e+01 0.0000e+00 1.0000e+00
       22  1    1    2    0    0 -9.6399697665e+01 +3.1680990733e+02 +3.2774974887e+02 4.6591986111e+02 0.0000000000e+00 0.0000e+00 1.0000e+00
       22  1    1    2    0    0 -1.2115214637e+02 -7.2158993305e+03 -6.1648234760e+03 9.4915188184e+03 0.0000000000e+00 0.0000e+00 1.0000e+00
</event>
<event>
 6      1 +1.4834189e-01 1.00006100e+04 7.81653100e-03 6.93868800e-02
  1000022 -1    0    0    0    0 +0.0000000000e+00 +0.0000000000e+00 +4.4721471353e+01 1.0000100000e+04 1.0000000000e+04 0.0000e+00 1.0000e+00
  1000022 -1    0    0    0    0 -0.0000000000e+00 -0.0000000000e+00 -4.4721471353e+01 1.0000100000e+04 1.0000000000e+04 0.0000e+00 1.0000e+00
      -24  1    1    2    0    0 -7.7440640996e+03 +5.4713756747e+03 -2.6053090738e+03 9.8336406581e+03 7.9829010000e+01 0.0000e+00 -1.0000e+00
       24  1    1    2    0    0 +7.4697223619e+03 -5.2667111608e+03 +2.4984545623e+03 9.4754232879e+03 7.9829010000e+01 0.0000e+00 -1.0000e+00
       22  1    1    2    0    0 +4.1386825531e+02 -2.9198964640e+02 +1.3490973655e+02 5.2416173398e+02 0.0000000000e+00 0.0000e+00 1.0000e+00
       22  1    1    2    0    0 -1.3952651762e+02 +8.7325132431e+01 -2.8055224977e+01 1.6697431995e+02 0.0000000000e+00 0.0000e+00 -1.0000e+00
</event>
<event>
 6      1 +1.4834189e-01 1.00078300e+04 7.81653100e-03 6.93825300e-02
  1000022 -1    0    0    0    0 +0.0000000000e+00 +0.0000000000e+00 +4.4721471353e+01 1.0000100000e+04 1.0000000000e+04 0.0000e+00 -1.0000e+00
  1000022 -1    0    0    0    0 -0.0000000000e+00 -0.0000000000e+00 -4.4721471353e+01 1.0000100000e+04 1.0000000000e+04 0.0000e+00 -1.0000e+00
      -24  1    1    2    0    0 +4.8194694586e+03 +8.5882361684e+03 -1.6899778011e+03 9.9923712894e+03 7.9829010000e+01 0.0000e+00 -1.0000e+00
       24  1    1    2    0    0 -4.7791351836e+03 -8.5394710834e+03 +1.6478446584e+03 9.9239339063e+03 7.9829010000e+01 0.0000e+00 -1.0000e+00
       22  1    1    2    0    0 -1.2339755610e+01 -1.6559836976e+01 +3.4989114358e+01 4.0629249227e+01 0.0000000000e+00 0.0000e+00 1.0000e+00
       22  1    1    2    0    0 -2.7994519356e+01 -3.2205248025e+01 +7.1440283327e+00 4.3265555066e+01 0.0000000000e+00 0.0000e+00 1.0000e+00
</event>
<event>
 6      1 +1.4834189e-01 1.00483100e+04 7.81653100e-03 6.93581600e-02
  1000022 -1    0    0    0    0 +0.0000000000e+00 +0.0000000000e+00 +4.4721471353e+01 1.0000100000e+04 1.0000000000e+04 0.0000e+00 1.0000e+00
  1000022 -1    0    0    0    0 -0.0000000000e+00 -0.0000000000e+00 -4.4721471353e+01 1.0000100000e+04 1.0000000000e+04 0.0000e+00 1.0000e+00
      -24  1    1    2    0    0 -9.5876301821e+03 +1.3459206880e+03 -2.1717227472e+03 9.9225454077e+03 7.9829010000e+01 0.0000e+00 -1.0000e+00
       24  1    1    2    0    0 +9.5376513172e+03 -1.4828372226e+03 +2.1691554759e+03 9.8932910109e+03 7.9829010000e+01 0.0000e+00 -1.0000e+00
       22  1    1    2    0    0 -2.8868741329e+01 +3.5977972770e+00 -3.8223918386e+00 2.9342103716e+01 0.0000000000e+00 0.0000e+00 1.0000e+00
       22  1    1    2    0    0 +7.8847606190e+01 +1.3331873731e+02 +6.3896631775e+00 1.5502147759e+02 0.0000000000e+00 0.0000e+00 -1.0000e+00
</event>
<event>
 6      1 +1.4834189e-01 1.00408600e+04 7.81653100e-03 6.93626400e-02
  1000022 -1    0    0    0    0 +0.0000000000e+00 +0.0000000000e+00 +4.4721471353e+01 1.0000100000e+04 1.0000000000e+04 0.0000e+00 1.0000e+00
  1000022 -1    0    0    0    0 -0.0000000000e+00 -0.0000000000e+00 -4.4721471353e+01 1.0000100000e+04 1.0000000000e+04 0.0000e+00 1.0000e+00
      -24  1    1    2    0    0 +6.6413298996e+03 +5.1670529885e+03 +5.3269518785e+03 9.9593417659e+03 7.9829010000e+01 0.0000e+00 -1.0000e+00
       24  1    1    2    0    0 -4.4339025036e+03 -2.9285010485e+03 -3.7160689278e+03 6.4846858636e+03 7.9829010000e+01 0.0000e+00 -1.0000e+00
       22  1    1    2    0    0 -3.9048621157e+01 -4.0058946914e+00 -7.4173083229e+01 8.3919534569e+01 0.0000000000e+00 0.0000e+00 -1.0000e+00
       22  1    1    2    0    0 -2.1683787749e+03 -2.2345460453e+03 -1.5367098675e+03 3.4722528360e+03 0.0000000000e+00 0.0000e+00 1.0000e+00
</event>
<event>
 6      1 +1.4834189e-01 1.00424000e+04 7.81653100e-03 6.93617100e-02
  1000022 -1    0    0    0    0 +0.0000000000e+00 +0.0000000000e+00 +4.4721471353e+01 1.0000100000e+04 1.0000000000e+04 0.0000e+00 1.0000e+00
  1000022 -1    0    0    0    0 -0.0000000000e+00 -0.0000000000e+00 -4.4721471353e+01 1.0000100000e+04 1.0000000000e+04 0.0000e+00 1.0000e+00
      -24  1    1    2    0    0 +3.6802275152e+01 -1.2547303655e+02 +3.4606380674e+01 1.5706101610e+02 7.9829010000e+01 0.0000e+00 0.0000e+00
       24  1    1    2    0    0 -2.1631232759e+03 +4.8942883081e+03 -1.1575515688e+03 5.4753500942e+03 7.9829010000e+01 0.0000e+00 -1.0000e+00
       22  1    1    2    0    0 +5.0351882018e+03 -8.2624704544e+03 +1.5597802227e+03 9.8007373488e+03 0.0000000000e+00 0.0000e+00 -1.0000e+00
       22  1    1    2    0    0 -2.9088672010e+03 +3.4936551828e+03 -4.3683503462e+02 4.5670515409e+03 0.0000000000e+00 0.0000e+00 -1.0000e+00
</event>
<event>
 6      1 +1.4834189e-01 1.00515200e+04 7.81653100e-03 6.93562400e-02
  1000022 -1    0    0    0    0 +0.0000000000e+00 +0.0000000000e+00 +4.4721471353e+01 1.0000100000e+04 1.0000000000e+04 0.0000e+00 1.0000e+00
  1000022 -1    0    0    0    0 -0.0000000000e+00 -0.0000000000e+00 -4.4721471353e+01 1.0000100000e+04 1.0000000000e+04 0.0000e+00 1.0000e+00
      -24  1    1    2    0    0 +4.9642781900e+03 -4.9541425966e+03 +6.4874181215e+03 9.5540856898e+03 7.9829010000e+01 0.0000e+00 -1.0000e+00
       24  1    1    2    0    0 -5.2359709345e+03 +5.3340145214e+03 -6.5652629660e+03 9.9486759433e+03 7.9829010000e+01 0.0000e+00 -1.0000e+00
       22  1    1    2    0    0 +5.7840923646e+01 -6.1471077941e+01 +7.6455181572e+01 1.1388441799e+02 0.0000000000e+00 0.0000e+00 -1.0000e+00
       22  1    1    2    0    0 +2.1385182084e+02 -3.1840084687e+02 +1.3896629290e+00 3.8355394891e+02 0.0000000000e+00 0.0000e+00 1.0000e+00
</event>
<event>
 6      1 +1.4834189e-01 1.00234500e+04 7.81653100e-03 6.93731200e-02
  1000022 -1    0    0    0    0 +0.0000000000e+00 +0.0000000000e+00 +4.4721471353e+01 1.0000100000e+04 1.0000000000e+04 0.0000e+00 1.0000e+00
  1000022 -1    0    0    0    0 -0.0000000000e+00 -0.0000000000e+00 -4.4721471353e+01 1.0000100000e+04 1.0000000000e+04 0.0000e+00 1.0000e+00
      -24  1    1    2    0    0 -5.6931848515e+02 +3.4726123494e+03 -2.7939158644e+02 3.5309478042e+03 7.9829010000e+01 0.0000e+00 1.0000e+00
       24  1    1    2    0    0 +2.1825817526e+02 -2.1000564803e+03 -8.7837989243e+02 2.2881865654e+03 7.9829010000e+01 0.0000e+00 -1.0000e+00
       22  1    1    2    0    0 +2.6097422604e+02 +6.3070113941e+03 +1.5185696228e+03 6.4924998245e+03 0.0000000000e+00 0.0000e+00 1.0000e+00
       22  1    1    2    0    0 +9.0086083845e+01 -7.6795672631e+03 -3.6079814388e+02 7.6885658059e+03 0.0000000000e+00 0.0000e+00 1.0000e+00
</event>
<event>
 6      1 +1.4834189e-01 1.00496500e+04 7.81653100e-03 6.93573600e-02
  1000022 -1    0    0    0    0 +0.0000000000e+00 +0.0000000000e+00 +4.4721471353e+01 1.0000100000e+04 1.0000000000e+04 0.0000e+00 1.0000e+00
  1000022 -1    0    0    0    0 -0.0000000000e+00 -0.0000000000e+00 -4.4721471353e+01 1.0000100000e+04 1.0000000000e+04 0.0000e+00 1.0000e+00
      -24  1    1    2    0    0 +8.3621634331e+03 +3.9684508323e+03 +3.4132279794e+03 9.8656412462e+03 7.9829010000e+01 0.0000e+00 -1.0000e+00
       24  1    1    2    0    0 -3.9829658589e+03 -2.4837785809e+03 -1.7101167520e+03 4.9964032111e+03 7.9829010000e+01 0.0000e+00 -1.0000e+00
       22  1    1    2    0    0 -4.3356705234e+03 -1.6618001928e+03 -1.7274106468e+03 4.9541463756e+03 0.0000000000e+00 0.0000e+00 -1.0000e+00
       22  1    1    2    0    0 -4.3527050746e+01 +1.7712794140e+02 +2.4299419418e+01 1.8400916705e+02 0.0000000000e+00 0.0000e+00 -1.0000e+00
</event>
<event>
 6      1 +1.4834189e-01 1.03924300e+04 7.81653100e-03 6.91556100e-02
  1000022 -1    0    0    0    0 +0.0000000000e+00 +0.0000000000e+00 +4.4721471353e+01 1.0000100000e+04 1.0000000000e+04 0.0000e+00 1.0000e+00
  1000022 -1    0    0    0    0 -0.0000000000e+00 -0.0000000000e+00 -4.4721471353e+01 1.0000100000e+04 1.0000000000e+04 0.0000e+00 1.0000e+00
      -24  1    1    2    0    0 -7.0238321221e+02 +9.5507197033e+01 -1.1144998471e+02 7.2198169742e+02 7.9829010000e+01 0.0000e+00 1.0000e+00
       24  1    1    2    0    0 +9.5762417951e+03 +5.8949962745e+02 +5.0096874565e+02 9.6077707655e+03 7.9829010000e+01 0.0000e+00 1.0000e+00
       22  1    1    2    0    0 -7.3463400399e+03 +3.4889035433e+02 +9.1488397200e+02 7.4113054952e+03 0.0000000000e+00 0.0000e+00 1.0000e+00
       22  1    1    2    0    0 -1.5275185430e+03 -1.0338971788e+03 -1.3044027329e+03 2.2591420418e+03 0.0000000000e+00 0.0000e+00 1.0000e+00
</event>
<event>
 6      1 +1.4834189e-01 1.00013100e+04 7.81653100e-03 6.93864600e-02
  1000022 -1    0    0    0    0 +0.0000000000e+00 +0.0000000000e+00 +4.4721471353e+01 1.0000100000e+04 1.0000000000e+04 0.0000e+00 -1.0000e+00
  1000022 -1    0    0    0    0 -0.0000000000e+00 -0.0000000000e+00 -4.4721471353e+01 1.0000100000e+04 1.0000000000e+04 0.0000e+00 -1.0000e+00
      -24  1    1    2    0    0 -5.0787177459e+03 -3.7775065984e+03 +7.6861408262e+03 9.9572116336e+03 7.9829010000e+01 0.0000e+00 -1.0000e+00
       24  1    1    2    0    0 +4.8109006876e+03 +3.5462795408e+03 -7.2557742564e+03 9.4007178842e+03 7.9829010000e+01 0.0000e+00 -1.0000e+00
       22  1    1    2    0    0 -2.8364643211e+01 -2.8301147597e+00 +3.3644117184e+01 4.4096362153e+01 0.0000000000e+00 0.0000e+00 -1.0000e+00
       22  1    1    2    0    0 +2.9618170156e+02 +2.3405717243e+02 -4.6401068701e+02 5.9817412011e+02 0.0000000000e+00 0.0000e+00 1.0000e+00
</event>
<event>
 6      1 +1.4834189e-01 1.01676200e+04 7.81653100e-03 6.92870300e-02
  1000022 -1    0    0    0    0 +0.0000000000e+00 +0.0000000000e+00 +4.4721471353e+01 1.0000100000e+04 1.0000000000e+04 0.0000e+00 1.0000e+00
  1000022 -1    0    0    0    0 -0.0000000000e+00 -0.0000000000e+00 -4.4721471353e+01 1.0000100000e+04 1.0000000000e+04 0.0000e+00 1.0000e+00
      -24  1    1    2    0    0 +8.1280340338e+03 -3.5773789656e+03 -1.9640032505e+03 9.0953976800e+03 7.9829010000e+01 0.0000e+00 1.0000e+00
       24  1    1    2    0    0 -8.7809077771e+03 +3.9364890450e+03 +2.0181574012e+03 9.8325794865e+03 7.9829010000e+01 0.0000e+00 1.0000e+00
       22  1    1    2    0    0 +3.4904606385e+02 -4.4390973095e+02 +2.6473537896e+02 6.2367766097e+02 0.0000000000e+00 0.0000e+00 -1.0000e+00
       22  1    1    2    0    0 +3.0382767943e+02 +8.4799651629e+01 -3.1888952963e+02 4.4854517254e+02 0.0000000000e+00 0.0000e+00 -1.0000e+00
</event>
<event>
 6      1 +1.4834189e-01 1.00079000e+04 7.81653100e-03 6.93824900e-02
  1000022 -1    0    0    0    0 +0.0000000000e+00 +0.0000000000e+00 +4.4721471353e+01 1.0000100000e+04 1.0000000000e+04 0.0000e+00 1.0000e+00
  1000022 -1    0    0    0    0 -0.0000000000e+00 -0.0000000000e+00 -4.4721471353e+01 1.0000100000e+04 1.0000000000e+04 0.0000e+00 1.0000e+00
      -24  1    1    2    0    0 -6.1492139699e+03 +7.6731158597e+03 -1.0110624571e+03 9.8852495875e+03 7.9829010000e+01 0.0000e+00 -1.0000e+00
       24  1    1    2    0    0 +5.8486004106e+03 -7.2902554285e+03 +9.1859089913e+02 9.3917055366e+03 7.9829010000e+01 0.0000e+00 -1.0000e+00
       22  1    1    2    0    0 -4.7095348338e+01 +1.0442498908e+02 +4.3820109324e+01 1.2264889792e+02 0.0000000000e+00 0.0000e+00 -1.0000e+00
       22  1    1    2    0    0 +3.4770890771e+02 -4.8728542028e+02 +4.8651448602e+01 6.0059597798e+02 0.0000000000e+00 0.0000e+00 -1.0000e+00
</event>
<event>
 6      1 +1.4834189e-01 1.00673900e+04 7.81653100e-03 6.93467200e-02
  1000022 -1    0    0    0    0 +0.0000000000e+00 +0.0000000000e+00 +4.4721471353e+01 1.0000100000e+04 1.0000000000e+04 0.0000e+00 -1.0000e+00
  1000022 -1    0    0    0    0 -0.0000000000e+00 -0.0000000000e+00 -4.4721471353e+01 1.0000100000e+04 1.0000000000e+04 0.0000e+00 -1.0000e+00
      -24  1    1    2    0    0 -3.5584542883e+03 +6.1584103946e+03 -6.6328519407e+03 9.7257242943e+03 7.9829010000e+01 0.0000e+00 -1.0000e+00
       24  1    1    2    0    0 +3.5744747934e+03 -5.7486901409e+03 +6.7277913566e+03 9.5443102209e+03 7.9829010000e+01 0.0000e+00 -1.0000e+00
       22  1    1    2    0    0 +1.8038737890e+01 -5.1676066477e+02 +7.9033275739e+01 5.2308052859e+02 0.0000000000e+00 0.0000e+00 1.0000e+00
       22  1    1    2    0    0 -3.4059242981e+01 +1.0704041107e+02 -1.7397269166e+02 2.0708495619e+02 0.0000000000e+00 0.0000e+00 -1.0000e+00
</event>
<event>
 6      1 +1.4834189e-01 1.00016100e+04 7.81653100e-03 6.93862800e-02
  1000022 -1    0    0    0    0 +0.0000000000e+00 +0.0000000000e+00 +4.4721471353e+01 1.0000100000e+04 1.0000000000e+04 0.0000e+00 -1.0000e+00
  1000022 -1    0    0    0    0 -0.0000000000e+00 -0.0000000000e+00 -4.4721471353e+01 1.0000100000e+04 1.0000000000e+04 0.0000e+00 -1.0000e+00
      -24  1    1    2    0    0 +3.3518558736e+03 -3.6904329583e+03 +7.9126015280e+03 9.3525327494e+03 7.9829010000e+01 0.0000e+00 -1.0000e+00
       24  1    1    2    0    0 -3.6064570366e+03 +3.9658071945e+03 -8.3718377270e+03 9.9412372801e+03 7.9829010000e+01 0.0000e+00 -1.0000e+00
       22  1    1    2    0    0 +2.8957771267e+02 -2.9963550856e+02 +4.9766545626e+02 6.4908211809e+02 0.0000000000e+00 0.0000e+00 -1.0000e+00
       22  1    1    2    0    0 -3.4976549707e+01 +2.4261272334e+01 -3.8429257242e+01 5.7347852417e+01 0.0000000000e+00 0.0000e+00 -1.0000e+00
</event>
<event>
 6      1 +1.4834189e-01 1.01656100e+04 7.81653100e-03 6.92882200e-02
  1000022 -1    0    0    0    0 +0.0000000000e+00 +0.0000000000e+00 +4.4721471353e+01 1.0000100000e+04 1.0000000000e+04 0.0000e+00 -1.0000e+00
  1000022 -1    0    0    0    0 -0.0000000000e+00 -0.0000000000e+00 -4.4721471353e+01 1.0000100000e+04 1.0000000000e+04 0.0000e+00 -1.0000e+00
      -24  1    1    2    0    0 +7.5507996941e+03 -5.6584391260e+03 +1.5005562348e+03 9.5546088903e+03 7.9829010000e+01 0.0000e+00 -1.0000e+00
       24  1    1    2    0    0 -7.3979297190e+03 +6.2153468724e+03 -1.6220450391e+03 9.7978213727e+03 7.9829010000e+01 0.0000e+00 -1.0000e+00
       22  1    1    2    0    0 -2.4494999116e+01 +2.6304415023e+01 -7.7542002327e+00 3.6770298512e+01 0.0000000000e+00 0.0000e+00 -1.0000e+00
       22  1    1    2    0    0 -1.2837497597e+02 -5.8321216137e+02 +1.2924300456e+02 6.1099943850e+02 0.0000000000e+00 0.0000e+00 1.0000e+00
</event>
<event>
 6      1 +1.4834189e-01 1.00404900e+04 7.81653100e-03 6.93628600e-02
  1000022 -1    0    0    0    0 +0.0000000000e+00 +0.0000000000e+00 +4.4721471353e+01 1.0000100000e+04 1.0000000000e+04 0.0000e+00 1.0000e+00
  1000022 -1    0    0    0    0 -0.0000000000e+00 -0.0000000000e+00 -4.4721471353e+01 1.0000100000e+04 1.0000000000e+04 0.0000e+00 1.0000e+00
      -24  1    1    2    0    0 +5.1437234663e+03 -2.1300450600e+03 -8.2579931013e+03 9.9597091216e+03 7.9829010000e+01 0.0000e+00 1.0000e+00
       24  1    1    2    0    0 -1.5572269038e+03 +6.1125515908e+02 +2.5573705142e+03 3.0569764666e+03 7.9829010000e+01 0.0000e+00 1.0000e+00
       22  1    1    2    0    0 -3.5824241578e+03 +1.6162787255e+03 +5.6144724121e+03 6.8533510220e+03 0.0000000000e+00 0.0000e+00 1.0000e+00
       22  1    1    2    0    0 -4.0724047284e+00 -9.7488824523e+01 +8.6150175078e+01 1.3016338983e+02 0.0000000000e+00 0.0000e+00 -1.0000e+00
</event>
<event>
 6      1 +1.4834189e-01 1.00829800e+04 7.81653100e-03 6.93373900e-02
  1000022 -1    0    0    0    0 +0.0000000000e+00 +0.0000000000e+00 +4.4721471353e+01 1.0000100000e+04 1.0000000000e+04 0.0000e+00 -1.0000e+00
  1000022 -1    0    0    0    0 -0.0000000000e+00 -0.0000000000e+00 -4.4721471353e+01 1.0000100000e+04 1.0000000000e+04 0.0000e+00 -1.0000e+00
      -24  1    1    2    0    0 -5.0983842687e+02 +5.3504980027e+03 -5.0334010897e+03 7.3640520978e+03 7.9829010000e+01 0.0000e+00 -1.0000e+00
       24  1    1    2    0    0 +1.4696891105e+03 -7.5204081420e+03 +6.2951015331e+03 9.9172173862e+03 7.9829010000e+01 0.0000e+00 -1.0000e+00
       22  1    1    2    0    0 -9.4188594361e+02 +1.8967215177e+03 -1.0067839031e+03 2.3448487103e+03 0.0000000000e+00 0.0000e+00 -1.0000e+00
       22  1    1    2    0    0 -1.7964740004e+01 +2.7318862152e+02 -2.5491654025e+02 3.7408180563e+02 0.0000000000e+00 0.0000e+00 1.0000e+00
</event>
<event>
 6      1 +1.4834189e-01 1.00529100e+04 7.81653100e-03 6.93554000e-02
  1000022 -1    0    0    0    0 +0.0000000000e+00 +0.0000000000e+00 +4.4721471353e+01 1.0000100000e+04 1.0000000000e+04 0.0000e+00 1.0000e+00
  1000022 -1    0    0    0    0 -0.0000000000e+00 -0.0000000000e+00 -4.4721471353e+01 1.0000100000e+04 1.0000000000e+04 0.0000e+00 1.0000e+00
      -24  1    1    2    0    0 +6.1135804961e+03 +2.5654797111e+03 -8.8014654018e+02 6.6886906965e+03 7.9829010000e+01 0.0000e+00 1.0000e+00
       24  1    1    2    0    0 -7.3785643795e+03 -2.4300464906e+03 +5.0657086674e+02 7.7853275437e+03 7.9829010000e+01 0.0000e+00 1.0000e+00
       22  1    1    2    0    0 -2.0404221408e+03 -7.0549331265e+02 +1.1411961678e+02 2.1619589760e+03 0.0000000000e+00 0.0000e+00 -1.0000e+00
       22  1    1    2    0    0 +3.3054060242e+03 +5.7006009213e+02 +2.5945605666e+02 3.3642227838e+03 0.0000000000e+00 0.0000e+00 -1.0000e+00
</event>
<event>
 6      1 +1.4834189e-01 1.00031300e+04 7.81653100e-03 6.93853600e-02
  1000022 -1    0    0    0    0 +0.0000000000e+00 +0.0000000000e+00 +4.4721471353e+01 1.0000100000e+04 1.0000000000e+04 0.0000e+00 1.0000e+00
  1000022 -1    0    0    0    0 -0.0000000000e+00 -0.0000000000e+00 -4.4721471353e+01 1.0000100000e+04 1.0000000000e+04 0.0000e+00 1.0000e+00
      -24  1    1    2    0    0 -4.1713117382e+02 +3.0422236130e+03 -6.7403149421e+03 7.4072492274e+03 7.9829010000e+01 0.0000e+00 -1.0000e+00
       24  1    1    2    0    0 +4.5288360367e+02 -4.0297091200e+03 +9.1373568493e+03 9.9970656701e+03 7.9829010000e+01 0.0000e+00 -1.0000e+00
       22  1    1    2    0    0 -1.0071271520e+01 +1.9090651357e+01 -2.1739854413e+01 3.0635024876e+01 0.0000000000e+00 0.0000e+00 -1.0000e+00
       22  1    1    2    0    0 -2.5681158323e+01 +9.6839485571e+02 -2.3753020528e+03 2.5652500776e+03 0.0000000000e+00 0.0000e+00 1.0000e+00
</event>
<event>
 6      1 +1.4834189e-01 1.00631100e+04 7.81653100e-03 6.93492900e-02
  1000022 -1    0    0    0    0 +0.0000000000e+00 +0.0000000000e+00 +4.4721471353e+01 1.0000100000e+04 1.0000000000e+04 0.0000e+00 -1.0000e+00
  1000022 -1    0    0    0    0 -0.0000000000e+00 -0.0000000000e+00 -4.4721471353e+01 1.0000100000e+04 1.0000000000e+04 0.0000e+00 -1.0000e+00
      -24  1    1    2    0    0 +5.2244265395e+02 +4.9383839935e+02 +2.3252048012e+02 7.5977703036e+02 7.9829010000e+01 0.0000e+00 -1.0000e+00
       24  1    1    2    0    0 -5.4251332331e+03 -8.0055354327e+03 -2.2844703511e+03 9.9370944253e+03 7.9829010000e+01 0.0000e+00 -1.0000e+00
       22  1    1    2    0    0 +1.3620339153e+02 -4.1777305653e+01 +3.7691818966e+01 1.4736817956e+02 0.0000000000e+00 0.0000e+00 -1.0000e+00
       22  1    1    2    0    0 +4.7664871876e+03 +7.5534743390e+03 +2.0142580520e+03 9.1559603647e+03 0.0000000000e+00 0.0000e+00 -1.0000e+00
</event>
<event>
 6      1 +1.4834189e-01 1.00893700e+04 7.81653100e-03 6.93335700e-02
  1000022 -1    0    0    0    0 +0.0000000000e+00 +0.0000000000e+00 +4.4721471353e+01 1.0000100000e+04 1.0000000000e+04 0.0000e+00 1.0000e+00
  1000022 -1    0    0    0    0 -0.0000000000e+00 -0.0000000000e+00 -4.4721471353e+01 1.0000100000e+04 1.0000000000e+04 0.0000e+00 1.0000e+00
      -24  1    1    2    0    0 -7.7119055694e+03 +5.9919378231e+03 -1.6856465541e+03 9.9108316181e+03 7.9829010000e+01 0.0000e+00 -1.0000e+00
       24  1    1    2    0    0 +6.9562943378e+03 -5.2722341532e+03 +1.7929732337e+03 8.9110947458e+03 7.9829010000e+01 0.0000e+00 -1.0000e+00
       22  1    1    2    0    0 +5.9963715414e+02 -4.6998974238e+02 +1.6238332904e+02 7.7898871629e+02 0.0000000000e+00 0.0000e+00 -1.0000e+00
       22  1    1    2    0    0 +1.5597407746e+02 -2.4971392750e+02 -2.6971000866e+02 3.9928491982e+02 0.0000000000e+00 0.0000e+00 1.0000e+00
</event>
<event>
 6      1 +1.4834189e-01 1.04336600e+04 7.81653100e-03 6.91318700e-02
  1000022 -1    0    0    0    0 +0.0000000000e+00 +0.0000000000e+00 +4.4721471353e+01 1.0000100000e+04 1.0000000000e+04 0.0000e+00 -1.0000e+00
  1000022 -1    0    0    0    0 -0.0000000000e+00 -0.0000000000e+00 -4.4721471353e+01 1.0000100000e+04 1.0000000000e+04 0.0000e+00 -1.0000e+00
      -24  1    1    2    0    0 +1.9118431485e+03 -9.3475064814e+03 -6.9380229529e+02 9.5665435733e+03 7.9829010000e+01 0.0000e+00 -1.0000e+00
       24  1    1    2    0    0 -2.0019583170e+03 +3.9952770796e+03 +1.9913313832e+03 4.8930409148e+03 7.9829010000e+01 0.0000e+00 -1.0000e+00
       22  1    1    2    0    0 +5.9816846902e+01 +5.3355784637e+03 -1.3232296947e+03 5.4975369415e+03 0.0000000000e+00 0.0000e+00 -1.0000e+00
       22  1    1    2    0    0 +3.0298321636e+01 +1.6650938123e+01 +2.5700606862e+01 4.3078570397e+01 0.0000000000e+00 0.0000e+00 -1.0000e+00
</event>
<event>
 6      1 +1.4834189e-01 1.00217100e+04 7.81653100e-03 6.93741600e-02
  1000022 -1    0    0    0    0 +0.0000000000e+00 +0.0000000000e+00 +4.4721471353e+01 1.0000100000e+04 1.0000000000e+04 0.0000e+00 -1.0000e+00
  1000022 -1    0    0    0    0 -0.0000000000e+00 -0.0000000000e+00 -4.4721471353e+01 1.0000100000e+04 1.0000000000e+04 0.0000e+00 -1.0000e+00
      -24  1    1    2    0    0 +4.5575255486e+01 +5.3070247079e+01 +1.8415440368e+01 1.0772815008e+02 7.9829010000e+01 0.0000e+00 0.0000e+00
       24  1    1    2    0    0 -3.5131403879e+03 -4.5649153459e+03 +1.5441496466e+03 5.9641745701e+03 7.9829010000e+01 0.0000e+00 1.0000e+00
       22  1    1    2    0    0 +5.7853933027e+03 +7.5649099755e+03 -2.7547044305e+03 9.9139817986e+03 0.0000000000e+00 0.0000e+00 1.0000e+00
       22  1    1    2    0    0 -2.3178281703e+03 -3.0530648766e+03 +1.1921393435e+03 4.0143154812e+03 0.0000000000e+00 0.0000e+00 1.0000e+00
</event>
<event>
 6      1 +1.4834189e-01 1.04433900e+04 7.81653100e-03 6.91262900e-02
  1000022 -1    0    0    0    0 +0.0000000000e+00 +0.0000000000e+00 +4.4721471353e+01 1.0000100000e+04 1.0000000000e+04 0.0000e+00 1.0000e+00
  1000022 -1    0    0    0    0 -0.0000000000e+00 -0.0000000000e+00 -4.4721471353e+01 1.0000100000e+04 1.0000000000e+04 0.0000e+00 1.0000e+00
      -24  1    1    2    0    0 -1.9298548275e+03 -1.1178316333e+03 +4.5844955573e+03 5.0988096063e+03 7.9829010000e+01 0.0000e+00 -1.0000e+00
       24  1    1    2    0    0 +4.5665803530e+03 -7.2640986257e+01 -4.6916358071e+03 6.5480342127e+03 7.9829010000e+01 0.0000e+00 -1.0000e+00
       22  1    1    2    0    0 -4.7722385314e+03 +9.4606075279e+02 +2.2125135445e+03 5.3445774139e+03 0.0000000000e+00 0.0000e+00 -1.0000e+00
       22  1    1    2    0    0 +2.1355130059e+03 +2.4441186672e+02 -2.1053732946e+03 3.0087787670e+03 0.0000000000e+00 0.0000e+00 -1.0000e+00
</event>
<event>
 6      1 +1.4834189e-01 1.00003900e+04 7.81653100e-03 6.93870200e-02
  1000022 -1    0    0    0    0 +0.0000000000e+00 +0.0000000000e+00 +4.4721471353e+01 1.0000100000e+04 1.0000000000e+04 0.0000e+00 -1.0000e+00
  1000022 -1    0    0    0    0 -0.0000000000e+00 -0.0000000000e+00 -4.4721471353e+01 1.0000100000e+04 1.0000000000e+04 0.0000e+00 -1.0000e+00
      -24  1    1    2    0    0 +4.6388454089e+03 +3.3789124236e+03 +7.9281450429e+03 9.7876346676e+03 7.9829010000e+01 0.0000e+00 -1.0000e+00
       24  1    1    2    0    0 -3.5237852018e+03 -2.5217113968e+03 -5.9517994770e+03 7.3624982310e+03 7.9829010000e+01 0.0000e+00 -1.0000e+00
       22  1    1    2    0    0 +9.9042604877e+01 +7.4756144268e+01 +1.7211052053e+02 2.1217905166e+02 0.0000000000e+00 0.0000e+00 1.0000e+00
       22  1    1    2    0    0 -1.2141028120e+03 -9.3195717105e+02 -2.1484560865e+03 2.6378880496e+03 0.0000000000e+00 0.0000e+00 -1.0000e+00
</event>
<event>
 6      1 +1.4834189e-01 1.08185400e+04 7.81653100e-03 6.89154600e-02
  1000022 -1    0    0    0    0 +0.0000000000e+00 +0.0000000000e+00 +4.4721471353e+01 1.0000100000e+04 1.0000000000e+04 0.0000e+00 1.0000e+00
  1000022 -1    0    0    0    0 -0.0000000000e+00 -0.0000000000e+00 -4.4721471353e+01 1.0000100000e+04 1.0000000000e+04 0.0000e+00 1.0000e+00
      -24  1    1    2    0    0 -3.7449194713e+02 -2.9972633138e+03 +8.6702212386e+03 9.1816632800e+03 7.9829010000e+01 0.0000e+00 -1.0000e+00
       24  1    1    2    0    0 +1.8248535447e+03 +1.3057523230e+03 -6.7855232096e+03 7.1473615752e+03 7.9829010000e+01 0.0000e+00 -1.0000e+00
       22  1    1    2    0    0 -1.6274667468e+03 +3.9043638712e+02 -1.6248383819e+03 2.3326354948e+03 0.0000000000e+00 0.0000e+00 -1.0000e+00
       22  1    1    2    0    0 +1.7710514918e+02 +1.3010746037e+03 -2.5985964710e+02 1.3385396500e+03 0.0000000000e+00 0.0000e+00 -1.0000e+00
</event>
<event>
 6      1 +1.4834189e-01 1.01837700e+04 7.81653100e-03 6.92774700e-02
  1000022 -1    0    0    0    0 +0.0000000000e+00 +0.0000000000e+00 +4.4721471353e+01 1.0000100000e+04 1.0000000000e+04 0.0000e+00 1.0000e+00
  1000022 -1    0    0    0    0 -0.0000000000e+00 -0.0000000000e+00 -4.4721471353e+01 1.0000100000e+04 1.0000000000e+04 0.0000e+00 1.0000e+00
      -24  1    1    2    0    0 +5.3061328085e+03 +7.0374452051e+02 +6.6193414748e+03 8.5130697144e+03 7.9829010000e+01 0.0000e+00 1.0000e+00
       24  1    1    2    0    0 -9.3614581329e+02 +8.4603025093e+02 -1.3099675415e+03 1.8205833680e+03 7.9829010000e+01 0.0000e+00 1.0000e+00
       22  1    1    2    0    0 +2.0538626678e+02 -1.1083374362e+03 +1.2331486088e+03 1.6707037087e+03 0.0000000000e+00 0.0000e+00 1.0000e+00
       22  1    1    2    0    0 -4.5753732620e+03 -4.4143733524e+02 -6.5425225420e+03 7.9958432088e+03 0.0000000000e+00 0.0000e+00 1.0000e+00
</event>
<event>
 6      1 +1.4834189e-01 1.00043200e+04 7.81653100e-03 6.93846500e-02
  1000022 -1    0    0    0    0 +0.0000000000e+00 +0.0000000000e+00 +4.4721471353e+01 1.0000100000e+04 1.0000000000e+04 0.0000e+00 1.0000e+00
  1000022 -1    0    0    0    0 -0.0000000000e+00 -0.0000000000e+00 -4.4721471353e+01 1.0000100000e+04 1.0000000000e+04 0.0000e+00 1.0000e+00
      -24  1    1    2    0    0 -9.2061147824e+03 -2.9295311496e+03 +2.5644853872e+03 9.9958821579e+03 7.9829010000e+01 0.0000e+00 -1.0000e+00
       24  1    1    2    0    0 +9.0971590490e+03 +2.8573267572e+03 -2.5267108338e+03 9.8647483125e+03 7.9829010000e+01 0.0000e+00 -1.0000e+00
       22  1    1    2    0    0 +9.4041380543e+01 +6.6947969252e+01 -4.2582923329e+01 1.2304111996e+02 0.0000000000e+00 0.0000e+00 1.0000e+00
       22  1    1    2    0    0 +1.4914352798e+01 +5.2564230726e+00 +4.8083698931e+00 1.6528409600e+01 0.0000000000e+00 0.0000e+00 -1.0000e+00
</event>
<event>
 6      1 +1.4834189e-01 1.04836000e+04 7.81653100e-03 6.91032700e-02
  1000022 -1    0    0    0    0 +0.0000000000e+00 +0.0000000000e+00 +4.4721471353e+01 1.0000100000e+04 1.0000000000e+04 0.0000e+00 1.0000e+00
  1000022 -1    0    0    0    0 -0.0000000000e+00 -0.0000000000e+00 -4.4721471353e+01 1.0000100000e+04 1.0000000000e+04 0.0000e+00 1.0000e+00
      -24  1    1    2    0    0 -7.7086855340e+03 -3.7036785828e+03 +4.1735167800e+03 9.5166003747e+03 7.9829010000e+01 0.0000e+00 -1.0000e+00
       24  1    1    2    0    0 +4.0352880147e+03 +2.1753958075e+03 -7.2938236665e+02 4.6426573843e+03 7.9829010000e+01 0.0000e+00 -1.0000e+00
       22  1    1    2    0    0 +1.7715069701e+03 +9.3570604506e+01 -2.8963221559e+03 3.3964208269e+03 0.0000000000e+00 0.0000e+00 -1.0000e+00
       22  1    1    2    0    0 +1.9018905493e+03 +1.4347121708e+03 -5.4781225746e+02 2.4445214141e+03 0.0000000000e+00 0.0000e+00 -1.0000e+00
</event>
<event>
 6      1 +1.4834189e-01 1.00144900e+04 7.81653100e-03 6.93785100e-02
  1000022 -1    0    0    0    0 +0.0000000000e+00 +0.0000000000e+00 +4.4721471353e+01 1.0000100000e+04 1.0000000000e+04 0.0000e+00 1.0000e+00
  1000022 -1    0    0    0    0 -0.0000000000e+00 -0.0000000000e+00 -4.4721471353e+01 1.0000100000e+04 1.0000000000e+04 0.0000e+00 1.0000e+00
      -24  1    1    2    0    0 -6.2837814897e+02 -4.1328185078e+02 -1.0698919058e+02 7.6385885085e+02 7.9829010000e+01 0.0000e+00 -1.0000e+00
       24  1    1    2    0    0 +8.1623221800e+03 +3.1403229223e+03 -2.4140734540e+03 9.0729959075e+03 7.9829010000e+01 0.0000e+00 -1.0000e+00
       22  1    1    2    0    0 -8.1385219776e+03 -3.2331324065e+03 +2.9808514035e+03 9.2506302611e+03 0.0000000000e+00 0.0000e+00 -1.0000e+00
       22  1    1    2    0    0 +6.0457794662e+02 +5.0609133500e+02 -4.5978875891e+02 9.1271498055e+02 0.0000000000e+00 0.0000e+00 -1.0000e+00
</event>
<event>
 6      1 +1.4834189e-01 1.00385200e+04 7.81653100e-03 6.93640500e-02
  1000022 -1    0    0    0    0 +0.0000000000e+00 +0.0000000000e+00 +4.4721471353e+01 1.0000100000e+04 1.0000000000e+04 0.0000e+00 1.0000e+00
  1000022 -1    0    0    0    0 -0.0000000000e+00 -0.0000000000e+00 -4.4721471353e+01 1.0000100000e+04 1.0000000000e+04 0.0000e+00 1.0000e+00
      -24  1    1    2    0    0 -9.1085202808e+03 +2.3550964511e+03 -2.6048850355e+03 9.7623470394e+03 7.9829010000e+01 0.0000e+00 1.0000e+00
       24  1    1    2    0    0 +9.2707417027e+03 -2.2792893672e+03 +2.8069851877e+03 9.9512486780e+03 7.9829010000e+01 0.0000e+00 1.0000e+00
       22  1    1    2    0    0 -1.7211020856e+02 -7.2728506604e+01 -2.0336798808e+02 2.7617005294e+02 0.0000000000e+00 0.0000e+00 1.0000e+00
       22  1    1    2    0    0 +9.8887866681e+00 -3.0785773213e+00 +1.2678358892e+00 1.0434229628e+01 0.0000000000e+00 0.0000e+00 -1.0000e+00
</event>
<event>
 6      1 +1.4834189e-01 8.01419400e+03 7.81653100e-03 7.07505800e-02
  1000022 -1    0    0    0    0 +0.0000000000e+00 +0.0000000000e+00 +4.4721471353e+01 1.0000100000e+04 1.0000000000e+04 0.0000e+00 1.0000e+00
  1000022 -1    0    0    0    0 -0.0000000000e+00 -0.0000000000e+00 -4.4721471353e+01 1.0000100000e+04 1.0000000000e+04 0.0000e+00 1.0000e+00
      -24  1    1    2    0    0 -2.9611192161e+03 +8.9702305123e+02 -3.0693648190e+03 4.3589276697e+03 7.9829010000e+01 0.0000e+00 -1.0000e+00
       24  1    1    2    0    0 +2.2160877207e+03 -3.9230386161e+03 +2.0219462873e+02 4.5109347266e+03 7.9829010000e+01 0.0000e+00 -1.0000e+00
       22  1    1    2    0    0 -3.8831677341e+03 +4.3768361053e+03 +8.8588244067e+02 5.9178098687e+03 0.0000000000e+00 0.0000e+00 -1.0000e+00
       22  1    1    2    0    0 +4.6281992296e+03 -1.3508205405e+03 +1.9812877496e+03 5.2125277350e+03 0.0000000000e+00 0.0000e+00 -1.0000e+00
</event>
<event>
 6      1 +1.4834189e-01 1.02454100e+04 7.81653100e-03 6.92411700e-02
  1000022 -1    0    0    0    0 +0.0000000000e+00 +0.0000000000e+00 +4.4721471353e+01 1.0000100000e+04 1.0000000000e+04 0.0000e+00 -1.0000e+00
  1000022 -1    0    0    0    0 -0.0000000000e+00 -0.0000000000e+00 -4.4721471353e+01 1.0000100000e+04 1.0000000000e+04 0.0000e+00 -1.0000e+00
      -24  1    1    2    0    0 -4.1395196066e+02 +2.5419163606e+02 -9.1271360727e+02 1.0370093603e+03 7.9829010000e+01 0.0000e+00 -1.0000e+00
       24  1    1    2    0    0 +6.0370109421e+03 +2.7276265400e+02 +7.3849361754e+03 9.5427226496e+03 7.9829010000e+01 0.0000e+00 -1.0000e+00
       22  1    1    2    0    0 -6.0634551012e+03 -9.9284955561e+02 -6.1845285403e+03 8.7177767390e+03 0.0000000000e+00 0.0000e+00 -1.0000e+00
       22  1    1    2    0    0 +4.4039611982e+02 +4.6589526555e+02 -2.8769402785e+02 7.0269125117e+02 0.0000000000e+00 0.0000e+00 -1.0000e+00
</event>
<event>
 6      1 +1.4834189e-01 1.00642100e+04 7.81653100e-03 6.93486300e-02
  1000022 -1    0    0    0    0 +0.0000000000e+00 +0.0000000000e+00 +4.4721471353e+01 1.0000100000e+04 1.0000000000e+04 0.0000e+00 -1.0000e+00
  1000022 -1    0    0    0    0 -0.0000000000e+00 -0.0000000000e+00 -4.4721471353e+01 1.0000100000e+04 1.0000000000e+04 0.0000e+00 -1.0000e+00
      -24  1    1    2    0    0 -7.0310106737e+03 +4.6719317617e+03 -2.8504052525e+03 8.9102884495e+03 7.9829010000e+01 0.0000e+00 -1.0000e+00
       24  1    1    2    0    0 +8.0012283734e+03 -4.4486498557e+03 +2.9762636494e+03 9.6267678379e+03 7.9829010000e+01 0.0000e+00 -1.0000e+00
       22  1    1    2    0    0 -1.0987483471e+03 -5.1752948009e+01 -3.4873509047e+02 1.1539248075e+03 0.0000000000e+00 0.0000e+00 -1.0000e+00
       22  1    1    2    0    0 +1.2853064740e+02 -1.7152895800e+02 +2.2287669356e+02 3.0921890512e+02 0.0000000000e+00 0.0000e+00 1.0000e+00
</event>
<event>
 6      1 +1.4834189e-01 1.01709100e+04 7.81653100e-03 6.92850800e-02
  1000022 -1    0    0    0    0 +0.0000000000e+00 +0.0000000000e+00 +4.4721471353e+01 1.0000100000e+04 1.0000000000e+04 0.0000e+00 -1.0000e+00
  1000022 -1    0    0    0    0 -0.0000000000e+00 -0.0000000000e+00 -4.4721471353e+01 1.0000100000e+04 1.0000000000e+04 0.0000e+00 -1.0000e+00
      -24  1    1    2    0    0 -1.3044348134e+03 +9.0987900194e+03 +2.1679589313e+02 9.1947214819e+03 7.9829010000e+01 0.0000e+00 -1.0000e+00
       24  1    1    2    0    0 +1.5135827329e+03 -9.6690979213e+03 +5.2233145457e+02 9.8011014748e+03 7.9829010000e+01 0.0000e+00 -1.0000e+00
       22  1    1    2    0    0 -2.1506365631e+02 +5.9778715888e+02 -7.4118237506e+02 9.7619320663e+02 0.0000000000e+00 0.0000e+00 -1.0000e+00
       22  1    1    2    0    0 +5.9157367364e+00 -2.7479257058e+01 +2.0550273559e+00 2.8183836627e+01 0.0000000000e+00 0.0000e+00 -1.0000e+00
</event>
<event>
 6      1 +1.4834189e-01 1.00173000e+04 7.81653100e-03 6.93768200e-02
  1000022 -1    0    0    0    0 +0.0000000000e+00 +0.0000000000e+00 +4.4721471353e+01 1.0000100000e+04 1.0000000000e+04 0.0000e+00 1.0000e+00
  1000022 -1    0    0    0    0 -0.0000000000e+00 -0.0000000000e+00 -4.4721471353e+01 1.0000100000e+04 1.0000000000e+04 0.0000e+00 1.0000e+00
      -24  1    1    2    0    0 +7.7850126196e+02 -2.4988190913e+03 -8.4230282150e+03 8.8206540601e+03 7.9829010000e+01 0.0000e+00 -1.0000e+00
       24  1    1    2    0    0 -6.8691138213e+02 +3.0238942070e+03 +9.4887362099e+03 9.9828989254e+03 7.9829010000e+01 0.0000e+00 -1.0000e+00
       22  1    1    2    0    0 -2.3718265959e+01 -1.2239871445e+01 -4.4560547389e+01 5.1942400567e+01 0.0000000000e+00 0.0000e+00 1.0000e+00
       22  1    1    2    0    0 -6.7871613866e+01 -5.1283524418e+02 -1.0211474475e+03 1.1447046140e+03 0.0000000000e+00 0.0000e+00 -1.0000e+00
</event>
<event>
 6      1 +1.4834189e-01 1.02861300e+04 7.81653100e-03 6.92173300e-02
  1000022 -1    0    0    0    0 +0.0000000000e+00 +0.0000000000e+00 +4.4721471353e+01 1.0000100000e+04 1.0000000000e+04 0.0000e+00 -1.0000e+00
  1000022 -1    0    0    0    0 -0.0000000000e+00 -0.0000000000e+00 -4.4721471353e+01 1.0000100000e+04 1.0000000000e+04 0.0000e+00 -1.0000e+00
      -24  1    1    2    0    0 -3.8777969636e+03 -8.4883018621e+03 +1.3573019507e+03 9.4306531613e+03 7.9829010000e+01 0.0000e+00 -1.0000e+00
       24  1    1    2    0    0 +3.6273205056e+03 +8.6293415820e+03 -2.2146989129e+03 9.6194726537e+03 7.9829010000e+01 0.0000e+00 -1.0000e+00
       22  1    1    2    0    0 +2.0742776908e+02 -2.0613836250e+02 +8.0394263249e+02 8.5547826402e+02 0.0000000000e+00 0.0000e+00 -1.0000e+00
       22  1    1    2    0    0 +4.3048688926e+01 +6.5098642607e+01 +5.3454329764e+01 9.4595920938e+01 0.0000000000e+00 0.0000e+00 1.0000e+00
</event>
<event>
 6      1 +1.4834189e-01 9.86744600e+03 7.81653100e-03 6.94679300e-02
  1000022 -1    0    0    0    0 +0.0000000000e+00 +0.0000000000e+00 +4.4721471353e+01 1.0000100000e+04 1.0000000000e+04 0.0000e+00 1.0000e+00
  1000022 -1    0    0    0    0 -0.0000000000e+00 -0.0000000000e+00 -4.4721471353e+01 1.0000100000e+04 1.0000000000e+04 0.0000e+00 1.0000e+00
      -24  1    1    2    0    0 +1.4756192213e+02 +9.5507253263e+01 +1.8158887168e+02 2.6503461179e+02 7.9829010000e+01 0.0000e+00 1.0000e+00
       24  1    1    2    0    0 -2.2765765183e+03 +6.7751995080e+03 -6.8381494599e+03 9.8920569006e+03 7.9829010000e+01 0.0000e+00 1.0000e+00
       22  1    1    2    0    0 +3.0558722165e-01 +1.2267903624e+01 -1.8063871748e+01 2.1838001406e+01 0.0000000000e+00 0.0000e+00 -1.0000e+00
       22  1    1    2    0    0 +2.1287090090e+03 -6.8829746649e+03 +6.6746244600e+03 9.8212704862e+03 0.0000000000e+00 0.0000e+00 1.0000e+00
</event>
<event>
 6      1 +1.4834189e-01 1.00171900e+04 7.81653100e-03 6.93768900e-02
  1000022 -1    0    0    0    0 +0.0000000000e+00 +0.0000000000e+00 +4.4721471353e+01 1.0000100000e+04 1.0000000000e+04 0.0000e+00 1.0000e+00
  1000022 -1    0    0    0    0 -0.0000000000e+00 -0.0000000000e+00 -4.4721471353e+01 1.0000100000e+04 1.0000000000e+04 0.0000e+00 1.0000e+00
      -24  1    1    2    0    0 -7.8664403862e+03 -5.1490892796e+03 +3.3522890718e+03 9.9818945822e+03 7.9829010000e+01 0.0000e+00 -1.0000e+00
       24  1    1    2    0    0 +7.5426730655e+03 +4.9786666446e+03 -3.2140303920e+03 9.5924659272e+03 7.9829010000e+01 0.0000e+00 -1.0000e+00
       22  1    1    2    0    0 +3.1502539162e+02 +1.9820457534e+02 -1.1832716242e+02 3.9054752389e+02 0.0000000000e+00 0.0000e+00 1.0000e+00
       22  1    1    2    0    0 +8.7419289884e+00 -2.7781940379e+01 -1.9931517347e+01 3.5291966755e+01 0.0000000000e+00 0.0000e+00 1.0000e+00
</event>
<event>
 6      1 +1.4834189e-01 1.00024600e+04 7.81653100e-03 6.93857700e-02
  1000022 -1    0    0    0    0 +0.0000000000e+00 +0.0000000000e+00 +4.4721471353e+01 1.0000100000e+04 1.0000000000e+04 0.0000e+00 -1.0000e+00
  1000022 -1    0    0    0    0 -0.0000000000e+00 -0.0000000000e+00 -4.4721471353e+01 1.0000100000e+04 1.0000000000e+04 0.0000e+00 -1.0000e+00
      -24  1    1    2    0    0 -1.4046221409e+03 +8.4218691885e+03 +5.0097620931e+03 9.8997440820e+03 7.9829010000e+01 0.0000e+00 1.0000e+00
       24  1    1    2    0    0 +5.9600367019e+02 -4.4419244386e+03 -2.4971850451e+03 5.1311030893e+03 7.9829010000e+01 0.0000e+00 1.0000e+00
       22  1    1    2    0    0 -1.9909002604e+01 +9.0349120042e+01 +3.2299727217e+01 9.7992878595e+01 0.0000000000e+00 0.0000e+00 -1.0000e+00
       22  1    1    2    0    0 +8.2852747333e+02 -4.0702938700e+03 -2.5448767752e+03 4.8713599501e+03 0.0000000000e+00 0.0000e+00 1.0000e+00
</event>
<event>
 6      1 +1.4834189e-01 1.00168400e+04 7.81653100e-03 6.93771000e-02
  1000022 -1    0    0    0    0 +0.0000000000e+00 +0.0000000000e+00 +4.4721471353e+01 1.0000100000e+04 1.0000000000e+04 0.0000e+00 1.0000e+00
  1000022 -1    0    0    0    0 -0.0000000000e+00 -0.0000000000e+00 -4.4721471353e+01 1.0000100000e+04 1.0000000000e+04 0.0000e+00 1.0000e+00
      -24  1    1    2    0    0 -3.4778085634e+03 +7.4271539805e+03 +3.1807192259e+03 8.7966536887e+03 7.9829010000e+01 0.0000e+00 -1.0000e+00
       24  1    1    2    0    0 +3.8239141696e+03 -8.4224032676e+03 -3.7552474088e+03 9.9833587609e+03 7.9829010000e+01 0.0000e+00 -1.0000e+00
       22  1    1    2    0    0 -3.2568020986e+02 +9.8944928225e+02 +5.8688394283e+02 1.1956212793e+03 0.0000000000e+00 0.0000e+00 -1.0000e+00
       22  1    1    2    0    0 -2.0425396283e+01 +5.8000048364e+00 -1.2355759983e+01 2.4566271068e+01 0.0000000000e+00 0.0000e+00 -1.0000e+00
</event>
<event>
 6      1 +1.4834189e-01 1.02013800e+04 7.81653100e-03 6.92670700e-02
  1000022 -1    0    0    0    0 +0.0000000000e+00 +0.0000000000e+00 +4.4721471353e+01 1.0000100000e+04 1.0000000000e+04 0.0000e+00 1.0000e+00
  1000022 -1    0    0    0    0 -0.0000000000e+00 -0.0000000000e+00 -4.4721471353e+01 1.0000100000e+04 1.0000000000e+04 0.0000e+00 1.0000e+00
      -24  1    1    2    0    0 -1.7815241435e+02 -1.7288844006e+02 -9.3063088626e+01 2.7687922411e+02 7.9829010000e+01 0.0000e+00 -1.0000e+00
       24  1    1    2    0    0 +9.6044798247e+03 +1.9021198724e+03 +3.8261797548e+02 9.7988194135e+03 7.9829010000e+01 0.0000e+00 1.0000e+00
       22  1    1    2    0    0 -7.2509906694e+03 -1.6529096977e+03 +8.1870764701e+02 7.4819287866e+03 0.0000000000e+00 0.0000e+00 1.0000e+00
       22  1    1    2    0    0 -2.1753367410e+03 -7.6321734701e+01 -1.1082625339e+03 2.4425725758e+03 0.0000000000e+00 0.0000e+00 1.0000e+00
</event>
<event>
 6      1 +1.4834189e-01 9.81753300e+03 7.81653100e-03 6.94986300e-02
  1000022 -1    0    0    0    0 +0.0000000000e+00 +0.0000000000e+00 +4.4721471353e+01 1.0000100000e+04 1.0000000000e+04 0.0000e+00 1.0000e+00
  1000022 -1    0    0    0    0 -0.0000000000e+00 -0.0000000000e+00 -4.4721471353e+01 1.0000100000e+04 1.0000000000e+04 0.0000e+00 1.0000e+00
      -24  1    1    2    0    0 -7.1859484282e+01 -2.1130382917e+02 +2.7537301757e+02 3.6334014828e+02 7.9829010000e+01 0.0000e+00 1.0000e+00
       24  1    1    2    0    0 +5.4946869305e+03 +7.7951144724e+03 +2.5496045972e+03 9.8722971174e+03 7.9829010000e+01 0.0000e+00 1.0000e+00
       22  1    1    2    0    0 +8.0783101672e+00 +8.7282102772e+00 -1.7240043308e+00 1.2017193546e+01 0.0000000000e+00 0.0000e+00 1.0000e+00
       22  1    1    2    0    0 -5.4309057564e+03 -7.5925388535e+03 -2.8232536104e+03 9.7525455408e+03 0.0000000000e+00 0.0000e+00 1.0000e+00
</event>
<event>
 6      1 +1.4834189e-01 1.00588400e+04 7.81653100e-03 6.93518500e-02
  1000022 -1    0    0    0    0 +0.0000000000e+00 +0.0000000000e+00 +4.4721471353e+01 1.0000100000e+04 1.0000000000e+04 0.0000e+00 1.0000e+00
  1000022 -1    0    0    0    0 -0.0000000000e+00 -0.0000000000e+00 -4.4721471353e+01 1.0000100000e+04 1.0000000000e+04 0.0000e+00 1.0000e+00
      -24  1    1    2    0    0 -5.0940878528e+03 +8.8354918446e+02 +8.4908152867e+03 9.9413634435e+03 7.9829010000e+01 0.0000e+00 -1.0000e+00
       24  1    1    2    0    0 +4.0797045533e+03 -1.2800917086e+03 -6.8495258606e+03 8.0749613752e+03 7.9829010000e+01 0.0000e+00 -1.0000e+00
       22  1    1    2    0    0 -1.2933470628e+01 +1.4777462117e+00 -1.2374505203e+01 1.7960700859e+01 0.0000000000e+00 0.0000e+00 1.0000e+00
       22  1    1    2    0    0 +1.0273167701e+03 +3.9506477798e+02 -1.6289149209e+03 1.9659144804e+03 0.0000000000e+00 0.0000e+00 -1.0000e+00
</event>
<event>
 6      1 +1.4834189e-01 9.27407600e+03 7.81653100e-03 6.98453600e-02
  1000022 -1    0    0    0    0 +0.0000000000e+00 +0.0000000000e+00 +4.4721471353e+01 1.0000100000e+04 1.0000000000e+04 0.0000e+00 1.0000e+00
  1000022 -1    0    0    0    0 -0.0000000000e+00 -0.0000000000e+00 -4.4721471353e+01 1.0000100000e+04 1.0000000000e+04 0.0000e+00 1.0000e+00
      -24  1    1    2    0    0 +3.3473668301e+03 +7.9253506030e+03 -4.1274825546e+03 9.5424594202e+03 7.9829010000e+01 0.0000e+00 -1.0000e+00
       24  1    1    2    0    0 -7.9023676279e+02 +8.0062175092e+01 +1.2115416374e+03 1.4508927952e+03 7.9829010000e+01 0.0000e+00 -1.0000e+00
       22  1    1    2    0    0 -4.5949632646e+01 +2.1010860650e+01 -6.6568212693e+01 8.3571238753e+01 0.0000000000e+00 0.0000e+00 -1.0000e+00
       22  1    1    2    0    0 -2.5111804347e+03 -8.0264236388e+03 +2.9825091299e+03 8.9232765459e+03 0.0000000000e+00 0.0000e+00 -1.0000e+00
</event>
<event>
 6      1 +1.4834189e-01 1.00031700e+04 7.81653100e-03 6.93853400e-02
  1000022 -1    0    0    0    0 +0.0000000000e+00 +0.0000000000e+00 +4.4721471353e+01 1.0000100000e+04 1.0000000000e+04 0.0000e+00 1.0000e+00
  1000022 -1    0    0    0    0 -0.0000000000e+00 -0.0000000000e+00 -4.4721471353e+01 1.0000100000e+04 1.0000000000e+04 0.0000e+00 1.0000e+00
      -24  1    1    2    0    0 +2.5729930533e+03 +8.2374723919e+02 -1.1542180986e+03 2.9389530205e+03 7.9829010000e+01 0.0000e+00 1.0000e+00
       24  1    1    2    0    0 -8.1206769525e+03 -2.3666005924e+03 +4.1117057443e+03 9.4052479674e+03 7.9829010000e+01 0.0000e+00 1.0000e+00
       22  1    1    2    0    0 +6.0406876732e+03 +1.7134388109e+03 -3.2368735232e+03 7.0642147709e+03 0.0000000000e+00 0.0000e+00 1.0000e+00
       22  1    1    2    0    0 -4.9300377404e+02 -1.7058545767e+02 +2.7938587753e+02 5.9178424122e+02 0.0000000000e+00 0.0000e+00 1.0000e+00
</event>
<event>
 6      1 +1.4834189e-01 1.00245700e+04 7.81653100e-03 6.93724400e-02
  1000022 -1    0    0    0    0 +0.0000000000e+00 +0.0000000000e+00 +4.4721471353e+01 1.0000100000e+04 1.0000000000e+04 0.0000e+00 -1.0000e+00
  1000022 -1    0    0    0    0 -0.0000000000e+00 -0.0000000000e+00 -4.4721471353e+01 1.0000100000e+04 1.0000000000e+04 0.0000e+00 -1.0000e+00
      -24  1    1    2    0    0 -7.6939118762e+01 -4.1610853322e+03 +4.2572906302e+03 5.9541117684e+03 7.9829010000e+01 0.0000e+00 1.0000e+00
       24  1    1    2    0    0 -1.8671921777e+02 +6.2331134162e+03 -7.7319360074e+03 9.9335680407e+03 7.9829010000e+01 0.0000e+00 1.0000e+00
       22  1    1    2    0    0 -3.7593655929e+01 +1.8159475248e+01 -5.1477838486e+00 4.2066009865e+01 0.0000000000e+00 0.0000e+00 1.0000e+00
       22  1    1    2    0    0 +3.0125199246e+02 -2.0901875593e+03 +3.4797931610e+03 4.0704541810e+03 0.0000000000e+00 0.0000e+00 1.0000e+00
</event>
<event>
 6      1 +1.4834189e-01 1.01498000e+04 7.81653100e-03 6.92975900e-02
  1000022 -1    0    0    0    0 +0.0000000000e+00 +0.0000000000e+00 +4.4721471353e+01 1.0000100000e+04 1.0000000000e+04 0.0000e+00 -1.0000e+00
  1000022 -1    0    0    0    0 -0.0000000000e+00 -0.0000000000e+00 -4.4721471353e+01 1.0000100000e+04 1.0000000000e+04 0.0000e+00 -1.0000e+00
      -24  1    1    2    0    0 -5.0445936931e+02 -4.1741259549e+02 +9.8282866221e+03 9.8503960898e+03 7.9829010000e+01 0.0000e+00 -1.0000e+00
       24  1    1    2    0    0 +1.1160812845e+03 +9.0423180626e+02 -8.2410076389e+03 8.3656351922e+03 7.9829010000e+01 0.0000e+00 -1.0000e+00
       22  1    1    2    0    0 -6.0020324779e+02 -5.0801464595e+02 -1.4997745950e+03 1.6934127244e+03 0.0000000000e+00 0.0000e+00 -1.0000e+00
       22  1    1    2    0    0 -1.1418667421e+01 +2.1195435173e+01 -8.7504388119e+01 9.0755993620e+01 0.0000000000e+00 0.0000e+00 -1.0000e+00
</event>
<event>
 6      1 +1.4834189e-01 7.52261800e+03 7.81653100e-03 7.11504700e-02
  1000022 -1    0    0    0    0 +0.0000000000e+00 +0.0000000000e+00 +4.4721471353e+01 1.0000100000e+04 1.0000000000e+04 0.0000e+00 -1.0000e+00
  1000022 -1    0    0    0    0 -0.0000000000e+00 -0.0000000000e+00 -4.4721471353e+01 1.0000100000e+04 1.0000000000e+04 0.0000e+00 -1.0000e+00
      -24  1    1    2    0    0 +3.0645191835e+02 +1.6952747173e+02 -4.3267829514e+03 4.3416673895e+03 7.9829010000e+01 0.0000e+00 -1.0000e+00
       24  1    1    2    0    0 +6.8237263500e+03 -1.0993608790e+03 +4.7740610997e+03 8.4005873423e+03 7.9829010000e+01 0.0000e+00 -1.0000e+00
       22  1    1    2    0    0 +2.3625266982e+01 -3.0775522989e+00 +1.6016585296e+01 2.8708109876e+01 0.0000000000e+00 0.0000e+00 -1.0000e+00
       22  1    1    2    0    0 -7.1538035353e+03 +9.3291095955e+02 -4.6329473360e+02 7.2292371583e+03 0.0000000000e+00 0.0000e+00 -1.0000e+00
</event>
<event>
 6      1 +1.4834189e-01 1.04508500e+04 7.81653100e-03 6.91220100e-02
  1000022 -1    0    0    0    0 +0.0000000000e+00 +0.0000000000e+00 +4.4721471353e+01 1.0000100000e+04 1.0000000000e+04 0.0000e+00 1.0000e+00
  1000022 -1    0    0    0    0 -0.0000000000e+00 -0.0000000000e+00 -4.4721471353e+01 1.0000100000e+04 1.0000000000e+04 0.0000e+00 1.0000e+00
      -24  1    1    2    0    0 -5.4460571444e+02 -4.0958742138e+02 +3.8734325465e+02 7.8788622764e+02 7.9829010000e+01 0.0000e+00 1.0000e+00
       24  1    1    2    0    0 +6.0433249307e+03 +5.2572499399e+03 -4.5800659763e+03 9.2273414463e+03 7.9829010000e+01 0.0000e+00 -1.0000e+00
       22  1    1    2    0    0 -4.9215622551e+03 -5.9263208342e+03 +4.1737499601e+03 8.7614634845e+03 0.0000000000e+00 0.0000e+00 -1.0000e+00
       22  1    1    2    0    0 -5.7715696117e+02 +1.0786583157e+03 +1.8972761534e+01 1.2235088416e+03 0.0000000000e+00 0.0000e+00 1.0000e+00
</event>
<event>
 6      1 +1.4834189e-01 1.00111200e+04 7.81653100e-03 6.93805400e-02
  1000022 -1    0    0    0    0 +0.0000000000e+00 +0.0000000000e+00 +4.4721471353e+01 1.0000100000e+04 1.0000000000e+04 0.0000e+00 -1.0000e+00
  1000022 -1    0    0    0    0 -0.0000000000e+00 -0.0000000000e+00 -4.4721471353e+01 1.0000100000e+04 1.0000000000e+04 0.0000e+00 -1.0000e+00
      -24  1    1    2    0    0 +2.7061394167e+03 +6.9895294014e+03 +2.9014687276e+03 8.0375123790e+03 7.9829010000e+01 0.0000e+00 -1.0000e+00
       24  1    1    2    0    0 -3.4918272964e+03 -8.5328338430e+03 -3.7174926972e+03 9.9412391523e+03 7.9829010000e+01 0.0000e+00 -1.0000e+00
       22  1    1    2    0    0 +2.9283251867e+01 -3.0413554896e+01 -5.5685809694e+01 6.9881346314e+01 0.0000000000e+00 0.0000e+00 -1.0000e+00
       22  1    1    2    0    0 +7.5640462788e+02 +1.5737179965e+03 +8.7170977929e+02 1.9515671223e+03 0.0000000000e+00 0.0000e+00 1.0000e+00
</event>
<event>
 6      1 +1.4834189e-01 1.00138100e+04 7.81653100e-03 6.93789200e-02
  1000022 -1    0    0    0    0 +0.0000000000e+00 +0.0000000000e+00 +4.4721471353e+01 1.0000100000e+04 1.0000000000e+04 0.0000e+00 1.0000e+00
  1000022 -1    0    0    0    0 -0.0000000000e+00 -0.0000000000e+00 -4.4721471353e+01 1.0000100000e+04 1.0000000000e+04 0.0000e+00 1.0000e+00
      -24  1    1    2    0    0 -1.0281453232e+03 +6.6184881853e+03 +7.4067635515e+03 9.9863901208e+03 7.9829010000e+01 0.0000e+00 1.0000e+00
       24  1    1    2    0    0 +9.0516470842e+02 -6.0745080755e+03 -6.8344107356e+03 9.1888255116e+03 7.9829010000e+01 0.0000e+00 1.0000e+00
       22  1    1    2    0    0 +3.1896283378e+01 -3.5501694903e+01 +7.6033291675e+00 4.8327568206e+01 0.0000000000e+00 0.0000e+00 -1.0000e+00
       22  1    1    2    0    0 +9.1084331365e+01 -5.0847841495e+02 -5.7995614511e+02 7.7665679946e+02 0.0000000000e+00 0.0000e+00 1.0000e+00
</event>
<event>
 6      1 +1.4834189e-01 1.00013500e+04 7.81653100e-03 6.93864400e-02
  1000022 -1    0    0    0    0 +0.0000000000e+00 +0.0000000000e+00 +4.4721471353e+01 1.0000100000e+04 1.0000000000e+04 0.0000e+00 -1.0000e+00
  1000022 -1    0    0    0    0 -0.0000000000e+00 -0.0000000000e+00 -4.4721471353e+01 1.0000100000e+04 1.0000000000e+04 0.0000e+00 -1.0000e+00
      -24  1    1    2    0    0 +2.3034708253e+03 -5.7046439178e+03 -1.4578072705e+03 6.3230146909e+03 7.9829010000e+01 0.0000e+00 -1.0000e+00
       24  1    1    2    0    0 -3.4651994627e+03 +8.9597802464e+03 +2.2664000654e+03 9.8705729979e+03 7.9829010000e+01 0.0000e+00 -1.0000e+00
       22  1    1    2    0    0 -3.2997200835e+01 +1.1037289297e+02 +6.1897323461e+01 1.3077564535e+02 0.0000000000e+00 0.0000e+00 1.0000e+00
       22  1    1    2    0    0 +1.1947258382e+03 -3.3655092215e+03 -8.7049011828e+02 3.6758366659e+03 0.0000000000e+00 0.0000e+00 -1.0000e+00
</event>
<event>
 6      1 +1.4834189e-01 1.00088100e+04 7.81653100e-03 6.93819400e-02
  1000022 -1    0    0    0    0 +0.0000000000e+00 +0.0000000000e+00 +4.4721471353e+01 1.0000100000e+04 1.0000000000e+04 0.0000e+00 1.0000e+00
  1000022 -1    0    0    0    0 -0.0000000000e+00 -0.0000000000e+00 -4.4721471353e+01 1.0000100000e+04 1.0000000000e+04 0.0000e+00 1.0000e+00
      -24  1    1    2    0    0 -8.1511194835e+03 +2.7514045487e+03 +5.0050463393e+03 9.9532827425e+03 7.9829010000e+01 0.0000e+00 -1.0000e+00
       24  1    1    2    0    0 +8.1803369044e+03 -2.7170182348e+03 -5.0217354270e+03 9.9761866125e+03 7.9829010000e+01 0.0000e+00 -1.0000e+00
       22  1    1    2    0    0 -4.1681986165e+01 -2.8505832014e+01 +2.3100568794e+01 5.5530232379e+01 0.0000000000e+00 0.0000e+00 1.0000e+00
       22  1    1    2    0    0 +1.2464565225e+01 -5.8804818694e+00 -6.4114810378e+00 1.5200412572e+01 0.0000000000e+00 0.0000e+00 1.0000e+00
</event>
<event>
 6      1 +1.4834189e-01 1.11249700e+04 7.81653100e-03 6.87495300e-02
  1000022 -1    0    0    0    0 +0.0000000000e+00 +0.0000000000e+00 +4.4721471353e+01 1.0000100000e+04 1.0000000000e+04 0.0000e+00 -1.0000e+00
  1000022 -1    0    0    0    0 -0.0000000000e+00 -0.0000000000e+00 -4.4721471353e+01 1.0000100000e+04 1.0000000000e+04 0.0000e+00 -1.0000e+00
      -24  1    1    2    0    0 +2.9998750450e+03 -1.6678993601e+03 +7.9181951999e+02 3.5234201260e+03 7.9829010000e+01 0.0000e+00 -1.0000e+00
       24  1    1    2    0    0 -8.6415240296e+03 +1.4463202552e+03 +1.4126698996e+03 8.8752345744e+03 7.9829010000e+01 0.0000e+00 -1.0000e+00
       22  1    1    2    0    0 +3.8293745485e+03 -1.3977691917e+03 +3.3032464181e+02 4.0898633858e+03 0.0000000000e+00 0.0000e+00 1.0000e+00
       22  1    1    2    0    0 +1.8122744361e+03 +1.6193482966e+03 -2.5348140614e+03 3.5116819137e+03 0.0000000000e+00 0.0000e+00 -1.0000e+00
</event>
<event>
 6      1 +1.4834189e-01 1.03626300e+04 7.81653100e-03 6.91728400e-02
  1000022 -1    0    0    0    0 +0.0000000000e+00 +0.0000000000e+00 +4.4721471353e+01 1.0000100000e+04 1.0000000000e+04 0.0000e+00 1.0000e+00
  1000022 -1    0    0    0    0 -0.0000000000e+00 -0.0000000000e+00 -4.4721471353e+01 1.0000100000e+04 1.0000000000e+04 0.0000e+00 1.0000e+00
      -24  1    1    2    0    0 +1.9986254211e+03 -4.7859089236e+03 +8.1226252289e+03 9.6375744397e+03 7.9829010000e+01 0.0000e+00 1.0000e+00
       24  1    1    2    0    0 -1.5580824893e+03 +3.9198786120e+03 -8.3395172971e+03 9.3459612024e+03 7.9829010000e+01 0.0000e+00 1.0000e+00
       22  1    1    2    0    0 -1.7890289110e+00 +1.0296808076e+01 -2.3237650126e+01 2.5479663742e+01 0.0000000000e+00 0.0000e+00 1.0000e+00
       22  1    1    2    0    0 -4.3875390292e+02 +8.5573350359e+02 +2.4012971832e+02 9.9118469425e+02 0.0000000000e+00 0.0000e+00 -1.0000e+00
</event>
<event>
 6      1 +1.4834189e-01 1.00921900e+04 7.81653100e-03 6.93318900e-02
  1000022 -1    0    0    0    0 +0.0000000000e+00 +0.0000000000e+00 +4.4721471353e+01 1.0000100000e+04 1.0000000000e+04 0.0000e+00 -1.0000e+00
  1000022 -1    0    0    0    0 -0.0000000000e+00 -0.0000000000e+00 -4.4721471353e+01 1.0000100000e+04 1.0000000000e+04 0.0000e+00 -1.0000e+00
      -24  1    1    2    0    0 +7.7113436099e+02 -6.8360116646e+01 -2.8642484921e+03 2.9680992914e+03 7.9829010000e+01 0.0000e+00 1.0000e+00
       24  1    1    2    0    0 -4.3207297602e+03 +2.3630026286e+03 +8.5970833088e+03 9.9080119688e+03 7.9829010000e+01 0.0000e+00 1.0000e+00
       22  1    1    2    0    0 +3.5387980649e+03 -2.2959910227e+03 -5.7201734868e+03 7.1073941244e+03 0.0000000000e+00 0.0000e+00 1.0000e+00
       22  1    1    2    0    0 +1.0797334318e+01 +1.3485107484e+00 -1.2661329844e+01 1.6694615390e+01 0.0000000000e+00 0.0000e+00 1.0000e+00
</event>
<event>
 6      1 +1.4834189e-01 1.00006600e+04 7.81653100e-03 6.93868600e-02
  1000022 -1    0    0    0    0 +0.0000000000e+00 +0.0000000000e+00 +4.4721471353e+01 1.0000100000e+04 1.0000000000e+04 0.0000e+00 -1.0000e+00
  1000022 -1    0    0    0    0 -0.0000000000e+00 -0.0000000000e+00 -4.4721471353e+01 1.0000100000e+04 1.0000000000e+04 0.0000e+00 -1.0000e+00
      -24  1    1    2    0    0 -3.9326393589e+03 -7.4566405368e+03 +5.2070120632e+03 9.9089095121e+03 7.9829010000e+01 0.0000e+00 1.0000e+00
       24  1    1    2    0    0 +3.9610499013e+03 +7.5136399412e+03 -5.2556123143e+03 9.9886202729e+03 7.9829010000e+01 0.0000e+00 1.0000e+00
       22  1    1    2    0    0 +2.1268983023e+00 +1.1663760980e+01 -2.0701641866e+00 1.2035472419e+01 0.0000000000e+00 0.0000e+00 -1.0000e+00
       22  1    1    2    0    0 -3.0537440791e+01 -6.8663165384e+01 +5.0670415307e+01 9.0634742555e+01 0.0000000000e+00 0.0000e+00 -1.0000e+00
</event>
<event>
 6      1 +1.4834189e-01 1.00210000e+04 7.81653100e-03 6.93745900e-02
  1000022 -1    0    0    0    0 +0.0000000000e+00 +0.0000000000e+00 +4.4721471353e+01 1.0000100000e+04 1.0000000000e+04 0.0000e+00 1.0000e+00
  1000022 -1    0    0    0    0 -0.0000000000e+00 -0.0000000000e+00 -4.4721471353e+01 1.0000100000e+04 1.0000000000e+04 0.0000e+00 1.0000e+00
      -24  1    1    2    0    0 -2.7412794404e+03 +4.2937012820e+02 -1.3546324383e+03 3.0887494866e+03 7.9829010000e+01 0.0000e+00 -1.0000e+00
       24  1    1    2    0    0 +8.3956918917e+03 -1.7040506836e+02 +4.8672760671e+03 9.7063602453e+03 7.9829010000e+01 0.0000e+00 -1.0000e+00
       22  1    1    2    0    0 -5.8714845592e+03 -2.4396568922e+02 -3.6772566585e+03 6.9322483163e+03 0.0000000000e+00 0.0000e+00 -1.0000e+00
       22  1    1    2    0    0 +2.1707210792e+02 -1.4999370632e+01 +1.6461302967e+02 2.7284195186e+02 0.0000000000e+00 0.0000e+00 1.0000e+00
</event>
<event>
 6      1 +1.4834189e-01 6.35650100e+03 7.81653100e-03 7.22371900e-02
  1000022 -1    0    0    0    0 +0.0000000000e+00 +0.0000000000e+00 +4.4721471353e+01 1.0000100000e+04 1.0000000000e+04 0.0000e+00 -1.0000e+00
  1000022 -1    0    0    0    0 -0.0000000000e+00 -0.0000000000e+00 -4.4721471353e+01 1.0000100000e+04 1.0000000000e+04 0.0000e+00 -1.0000e+00
      -24  1    1    2    0    0 -5.8492599254e+03 +2.2877817461e+02 +1.1608874780e+03 5.9682672138e+03 7.9829010000e+01 0.0000e+00 1.0000e+00
       24  1    1    2    0    0 +2.0023924013e+02 -1.5860728908e+02 -2.9505213593e+02 3.9834715913e+02 7.9829010000e+01 0.0000e+00 0.0000e+00
       22  1    1    2    0    0 +3.6624391175e+03 -3.8400451876e+03 -5.2886507290e+03 7.4919445984e+03 0.0000000000e+00 0.0000e+00 1.0000e+00
       22  1    1    2    0    0 +1.9865815678e+03 +3.7698743020e+03 +4.4228153869e+03 6.1416410287e+03 0.0000000000e+00 0.0000e+00 1.0000e+00
</event>
<event>
 6      1 +1.4834189e-01 1.00187800e+04 7.81653100e-03 6.93759300e-02
  1000022 -1    0    0    0    0 +0.0000000000e+00 +0.0000000000e+00 +4.4721471353e+01 1.0000100000e+04 1.0000000000e+04 0.0000e+00 -1.0000e+00
  1000022 -1    0    0    0    0 -0.0000000000e+00 -0.0000000000e+00 -4.4721471353e+01 1.0000100000e+04 1.0000000000e+04 0.0000e+00 -1.0000e+00
      -24  1    1    2    0    0 -7.9709250518e+03 +1.9745879189e+03 -2.4132929093e+03 8.5594975885e+03 7.9829010000e+01 0.0000e+00 -1.0000e+00
       24  1    1    2    0    0 +8.8653868144e+03 -1.9406598020e+03 +2.4299896115e+03 9.3953427834e+03 7.9829010000e+01 0.0000e+00 -1.0000e+00
       22  1    1    2    0    0 +5.5231440695e+02 -1.2600246035e+02 +1.5020766389e+02 5.8608034127e+02 0.0000000000e+00 0.0000e+00 -1.0000e+00
       22  1    1    2    0    0 -1.4467761696e+03 +9.2074343449e+01 -1.6690436613e+02 1.4592792868e+03 0.0000000000e+00 0.0000e+00 1.0000e+00
</event>
<event>
 6      1 +1.4834189e-01 1.00417000e+04 7.81653100e-03 6.93621400e-02
  1000022 -1    0    0    0    0 +0.0000000000e+00 +0.0000000000e+00 +4.4721471353e+01 1.0000100000e+04 1.0000000000e+04 0.0000e+00 1.0000e+00
  1000022 -1    0    0    0    0 -0.0000000000e+00 -0.0000000000e+00 -4.4721471353e+01 1.0000100000e+04 1.0000000000e+04 0.0000e+00 1.0000e+00
      -24  1    1    2    0    0 -7.5516398381e+03 -2.6260292779e+03 +5.8781454992e+03 9.9238229123e+03 7.9829010000e+01 0.0000e+00 -1.0000e+00
       24  1    1    2    0    0 +7.6226164705e+03 +2.5992596310e+03 -5.8006918566e+03 9.9254637761e+03 7.9829010000e+01 0.0000e+00 -1.0000e+00
       22  1    1    2    0    0 -4.8746101342e+01 +4.7409869976e+01 -9.4264877360e+01 1.1623142979e+02 0.0000000000e+00 0.0000e+00 1.0000e+00
       22  1    1    2    0    0 -2.2230531032e+01 -2.0640222993e+01 +1.6811234716e+01 3.4681881838e+01 0.0000000000e+00 0.0000e+00 -1.0000e+00
</event>
<event>
 6      1 +1.4834189e-01 1.02950700e+04 7.81653100e-03 6.92121100e-02
  1000022 -1    0    0    0    0 +0.0000000000e+00 +0.0000000000e+00 +4.4721471353e+01 1.0000100000e+04 1.0000000000e+04 0.0000e+00 1.0000e+00
  1000022 -1    0    0    0    0 -0.0000000000e+00 -0.0000000000e+00 -4.4721471353e+01 1.0000100000e+04 1.0000000000e+04 0.0000e+00 1.0000e+00
      -24  1    1    2    0    0 -3.7320507378e+02 +1.2429338033e+03 +3.7191240728e+02 1.3523527557e+03 7.9829010000e+01 0.0000e+00 1.0000e+00
       24  1    1    2    0    0 -3.5876559045e+03 -5.3368730303e+03 -7.2331171055e+03 9.6787315473e+03 7.9829010000e+01 0.0000e+00 1.0000e+00
       22  1    1    2    0    0 +3.9745656305e+03 +4.1115250198e+03 +6.8753434124e+03 8.9427153023e+03 0.0000000000e+00 0.0000e+00 1.0000e+00
       22  1    1    2    0    0 -1.3704652195e+01 -1.7585792744e+01 -1.4138714237e+01 2.6400394665e+01 0.0000000000e+00 0.0000e+00 1.0000e+00
</event>
<event>
 6      1 +1.4834189e-01 9.93475700e+03 7.81653100e-03 6.94268000e-02
  1000022 -1    0    0    0    0 +0.0000000000e+00 +0.0000000000e+00 +4.4721471353e+01 1.0000100000e+04 1.0000000000e+04 0.0000e+00 1.0000e+00
  1000022 -1    0    0    0    0 -0.0000000000e+00 -0.0000000000e+00 -4.4721471353e+01 1.0000100000e+04 1.0000000000e+04 0.0000e+00 1.0000e+00
      -24  1    1    2    0    0 -1.4998204702e+02 -1.1959041233e+02 +8.0442864403e+00 2.0792754154e+02 7.9829010000e+01 0.0000e+00 1.0000e+00
       24  1    1    2    0    0 -4.3468441213e+01 -3.1195408551e+00 +9.5456313635e+01 1.3184769838e+02 7.9829010000e+01 0.0000e+00 0.0000e+00
       22  1    1    2    0    0 -2.4839790493e+03 +6.9852436214e+03 -6.5340112530e+03 9.8821598561e+03 0.0000000000e+00 0.0000e+00 1.0000e+00
       22  1    1    2    0    0 +2.6774295375e+03 -6.8625336682e+03 +6.4305106529e+03 9.7782649040e+03 0.0000000000e+00 0.0000e+00 1.0000e+00
</event>
<event>
 6      1 +1.4834189e-01 1.00362500e+04 7.81653100e-03 6.93654100e-02
  1000022 -1    0    0    0    0 +0.0000000000e+00 +0.0000000000e+00 +4.4721471353e+01 1.0000100000e+04 1.0000000000e+04 0.0000e+00 1.0000e+00
  1000022 -1    0    0    0    0 -0.0000000000e+00 -0.0000000000e+00 -4.4721471353e+01 1.0000100000e+04 1.0000000000e+04 0.0000e+00 1.0000e+00
      -24  1    1    2    0    0 +7.3189068559e+03 +1.5528809722e+03 +3.2791536972e+03 8.1692752751e+03 7.9829010000e+01 0.0000e+00 1.0000e+00
       24  1    1    2    0    0 -1.4151615178e+03 -3.9425703804e+02 -1.8363302905e+02 1.4826376812e+03 7.9829010000e+01 0.0000e+00 1.0000e+00
       22  1    1    2    0    0 +1.6333513486e+03 +3.4420417454e+02 +6.5920258413e+02 1.7946757893e+03 0.0000000000e+00 0.0000e+00 1.0000e+00
       22  1    1    2    0    0 -7.5370966868e+03 -1.5028281087e+03 -3.7547232522e+03 8.5536112544e+03 0.0000000000e+00 0.0000e+00 1.0000e+00
</event>
<event>
 6      1 +1.4834189e-01 9.63722900e+03 7.81653100e-03 6.96111100e-02
  1000022 -1    0    0    0    0 +0.0000000000e+00 +0.0000000000e+00 +4.4721471353e+01 1.0000100000e+04 1.0000000000e+04 0.0000e+00 -1.0000e+00
  1000022 -1    0    0    0    0 -0.0000000000e+00 -0.0000000000e+00 -4.4721471353e+01 1.0000100000e+04 1.0000000000e+04 0.0000e+00 -1.0000e+00
      -24  1    1    2    0    0 -1.4526560536e+02 +7.7438984777e+03 -5.6199523281e+03 9.5697075488e+03 7.9829010000e+01 0.0000e+00 1.0000e+00
       24  1    1    2    0    0 +1.3688144564e+02 -4.3562801014e+02 -5.4248099959e+02 7.1355910696e+02 7.9829010000e+01 0.0000e+00 1.0000e+00
       22  1    1    2    0    0 +1.6992925134e+01 -7.3684868683e+03 +6.2126577319e+03 9.6380497810e+03 0.0000000000e+00 0.0000e+00 1.0000e+00
       22  1    1    2    0    0 -8.6087654136e+00 +6.0216400789e+01 -5.0224404194e+01 7.8883563197e+01 0.0000000000e+00 0.0000e+00 1.0000e+00
</event>
<event>
 6      1 +1.4834189e-01 9.04415300e+03 7.81653100e-03 6.99993300e-02
  1000022 -1    0    0    0    0 +0.0000000000e+00 +0.0000000000e+00 +4.4721471353e+01 1.0000100000e+04 1.0000000000e+04 0.0000e+00 -1.0000e+00
  1000022 -1    0    0    0    0 -0.0000000000e+00 -0.0000000000e+00 -4.4721471353e+01 1.0000100000e+04 1.0000000000e+04 0.0000e+00 -1.0000e+00
      -24  1    1    2    0    0 +7.6181175206e+02 +2.6184893511e+02 +3.5077593395e+01 8.1026237651e+02 7.9829010000e+01 0.0000e+00 -1.0000e+00
       24  1    1    2    0    0 -2.2789988070e+02 -1.6565728428e+03 -9.0321138813e+02 1.9021922673e+03 7.9829010000e+01 0.0000e+00 -1.0000e+00
       22  1    1    2    0    0 -8.5032405840e+03 +2.0694580268e+03 -1.6442671524e+03 8.9045702548e+03 0.0000000000e+00 0.0000e+00 -1.0000e+00
       22  1    1    2    0    0 +7.9693287127e+03 -6.7473411908e+02 +2.5124009471e+03 8.3831751014e+03 0.0000000000e+00 0.0000e+00 -1.0000e+00
</event>
<event>
 6      1 +1.4834189e-01 1.00366800e+04 7.81653100e-03 6.93651500e-02
  1000022 -1    0    0    0    0 +0.0000000000e+00 +0.0000000000e+00 +4.4721471353e+01 1.0000100000e+04 1.0000000000e+04 0.0000e+00 1.0000e+00
  1000022 -1    0    0    0    0 -0.0000000000e+00 -0.0000000000e+00 -4.4721471353e+01 1.0000100000e+04 1.0000000000e+04 0.0000e+00 1.0000e+00
      -24  1    1    2    0    0 -2.1823546315e+03 -2.2002493273e+03 -5.1870418652e+02 3.1431187607e+03 7.9829010000e+01 0.0000e+00 -1.0000e+00
       24  1    1    2    0    0 +5.4493086595e+03 +8.0466045442e+03 +2.0699146881e+03 9.9364847428e+03 7.9829010000e+01 0.0000e+00 -1.0000e+00
       22  1    1    2    0    0 +1.0381110952e+01 +1.0549363316e+01 +2.2622329545e+01 2.7033799678e+01 0.0000000000e+00 0.0000e+00 -1.0000e+00
       22  1    1    2    0    0 -3.2773351389e+03 -5.8569045802e+03 -1.5738328311e+03 6.8935626968e+03 0.0000000000e+00 0.0000e+00 -1.0000e+00
</event>
<event>
 6      1 +1.4834189e-01 1.07011600e+04 7.81653100e-03 6.89804900e-02
  1000022 -1    0    0    0    0 +0.0000000000e+00 +0.0000000000e+00 +4.4721471353e+01 1.0000100000e+04 1.0000000000e+04 0.0000e+00 -1.0000e+00
  1000022 -1    0    0    0    0 -0.0000000000e+00 -0.0000000000e+00 -4.4721471353e+01 1.0000100000e+04 1.0000000000e+04 0.0000e+00 -1.0000e+00
      -24  1    1    2    0    0 -7.9643895451e+03 +4.2325371390e+03 +1.4089876537e+03 9.1289369774e+03 7.9829010000e+01 0.0000e+00 1.0000e+00
       24  1    1    2    0    0 +7.5749476624e+03 -5.3733397960e+03 -4.6163676580e+02 9.2990372526e+03 7.9829010000e+01 0.0000e+00 1.0000e+00
       22  1    1    2    0    0 -2.9922433365e+01 +1.7762523462e+00 +3.7394764159e+00 3.0207462236e+01 0.0000000000e+00 0.0000e+00 -1.0000e+00
       22  1    1    2    0    0 +4.1936431608e+02 +1.1390264047e+03 -9.5109036436e+02 1.5420183077e+03 0.0000000000e+00 0.0000e+00 1.0000e+00
</event>
<event>
 6      1 +1.4834189e-01 9.22556500e+03 7.81653100e-03 6.98774700e-02
  1000022 -1    0    0    0    0 +0.0000000000e+00 +0.0000000000e+00 +4.4721471353e+01 1.0000100000e+04 1.0000000000e+04 0.0000e+00 -1.0000e+00
  1000022 -1    0    0    0    0 -0.0000000000e+00 -0.0000000000e+00 -4.4721471353e+01 1.0000100000e+04 1.0000000000e+04 0.0000e+00 -1.0000e+00
      -24  1    1    2    0    0 +9.6610874004e+02 +8.8051638905e+03 -5.9202209244e+02 8.8781270584e+03 7.9829010000e+01 0.0000e+00 1.0000e+00
       24  1    1    2    0    0 +1.4414473250e+02 +2.2768750250e+02 +1.4721531406e+03 1.4987417533e+03 7.9829010000e+01 0.0000e+00 1.0000e+00
       22  1    1    2    0    0 +7.2605908114e+01 +2.2957110403e+02 -6.9269089817e+01 2.5054483930e+02 0.0000000000e+00 0.0000e+00 -1.0000e+00
       22  1    1    2    0    0 -1.1828593807e+03 -9.2624224971e+03 -8.1086195835e+02 9.3727863490e+03 0.0000000000e+00 0.0000e+00 1.0000e+00
</event>
<event>
 6      1 +1.4834189e-01 1.00173200e+04 7.81653100e-03 6.93768000e-02
  1000022 -1    0    0    0    0 +0.0000000000e+00 +0.0000000000e+00 +4.4721471353e+01 1.0000100000e+04 1.0000000000e+04 0.0000e+00 -1.0000e+00
  1000022 -1    0    0    0    0 -0.0000000000e+00 -0.0000000000e+00 -4.4721471353e+01 1.0000100000e+04 1.0000000000e+04 0.0000e+00 -1.0000e+00
      -24  1    1    2    0    0 +6.7096048128e+02 +6.2073922422e+03 -6.5681950516e+03 9.0625308454e+03 7.9829010000e+01 0.0000e+00 -1.0000e+00
       24  1    1    2    0    0 -4.0786775908e+02 -6.1463087296e+03 +6.2191060031e+03 8.7536917502e+03 7.9829010000e+01 0.0000e+00 -1.0000e+00
       22  1    1    2    0    0 -9.8670865340e+00 +6.0079565978e+02 -6.9712355351e+02 9.2034451868e+02 0.0000000000e+00 0.0000e+00 1.0000e+00
       22  1    1    2    0    0 -2.5322563566e+02 -6.6187917241e+02 +1.0462126020e+03 1.2636328858e+03 0.0000000000e+00 0.0000e+00 -1.0000e+00
</event>
<event>
 6      1 +1.4834189e-01 1.00565900e+04 7.81653100e-03 6.93532000e-02
  1000022 -1    0    0    0    0 +0.0000000000e+00 +0.0000000000e+00 +4.4721471353e+01 1.0000100000e+04 1.0000000000e+04 0.0000e+00 1.0000e+00
  1000022 -1    0    0    0    0 -0.0000000000e+00 -0.0000000000e+00 -4.4721471353e+01 1.0000100000e+04 1.0000000000e+04 0.0000e+00 1.0000e+00
      -24  1    1    2    0    0 -6.2715731853e+03 +6.5090141360e+03 +3.7541224224e+03 9.7877322744e+03 7.9829010000e+01 0.0000e+00 -1.0000e+00
       24  1    1    2    0    0 +5.3523895865e+03 -5.0580147691e+03 -2.4898170826e+03 7.7741333579e+03 7.9829010000e+01 0.0000e+00 -1.0000e+00
       22  1    1    2    0    0 -9.9270414052e+01 +1.0405258206e+02 +6.0142328536e+01 1.5588025731e+02 0.0000000000e+00 0.0000e+00 -1.0000e+00
       22  1    1    2    0    0 +1.0184540128e+03 -1.5550519489e+03 -1.3244476683e+03 2.2824541104e+03 0.0000000000e+00 0.0000e+00 -1.0000e+00
</event>
<event>
 6      1 +1.4834189e-01 1.00060900e+04 7.81653100e-03 6.93835800e-02
  1000022 -1    0    0    0    0 +0.0000000000e+00 +0.0000000000e+00 +4.4721471353e+01 1.0000100000e+04 1.0000000000e+04 0.0000e+00 1.0000e+00
  1000022 -1    0    0    0    0 -0.0000000000e+00 -0.0000000000e+00 -4.4721471353e+01 1.0000100000e+04 1.0000000000e+04 0.0000e+00 1.0000e+00
      -24  1    1    2    0    0 +7.6740770531e+03 -6.3005587341e+03 +1.1345767941e+03 9.9941050700e+03 7.9829010000e+01 0.0000e+00 1.0000e+00
       24  1    1    2    0    0 -7.6247125271e+03 +6.2023572582e+03 -1.1088986125e+03 9.8914865153e+03 7.9829010000e+01 0.0000e+00 1.0000e+00
       22  1    1    2    0    0 -9.5475557006e+00 +6.2927387459e+00 -1.1979800386e+00 1.1497370871e+01 0.0000000000e+00 0.0000e+00 -1.0000e+00
       22  1    1    2    0    0 -3.9816970303e+01 +9.1908737113e+01 -2.4480201521e+01 1.0311104378e+02 0.0000000000e+00 0.0000e+00 -1.0000e+00
</event>
<event>
 6      1 +1.4834189e-01 1.00059800e+04 7.81653100e-03 6.93836400e-02
  1000022 -1    0    0    0    0 +0.0000000000e+00 +0.0000000000e+00 +4.4721471353e+01 1.0000100000e+04 1.0000000000e+04 0.0000e+00 1.0000e+00
  1000022 -1    0    0    0    0 -0.0000000000e+00 -0.0000000000e+00 -4.4721471353e+01 1.0000100000e+04 1.0000000000e+04 0.0000e+00 1.0000e+00
      -24  1    1    2    0    0 +8.0841283117e+01 -4.3770488370e+03 -8.5823419984e+03 9.6347318947e+03 7.9829010000e+01 0.0000e+00 1.0000e+00
       24  1    1    2    0    0 -2.0743319344e+01 +4.5526991445e+03 +8.8030922196e+03 9.9110193766e+03 7.9829010000e+01 0.0000e+00 1.0000e+00
       22  1    1    2    0    0 +9.1712175835e+00 +4.8445454457e+01 +6.7015310431e+01 8.3199309623e+01 0.0000000000e+00 0.0000e+00 -1.0000e+00
       22  1    1    2    0    0 -6.9269181357e+01 -2.2409576196e+02 -2.8776553166e+02 3.7124941915e+02 0.0000000000e+00 0.0000e+00 1.0000e+00
</event>
<event>
 6      1 +1.4834189e-01 9.66469900e+03 7.81653100e-03 6.95938100e-02
  1000022 -1    0    0    0    0 +0.0000000000e+00 +0.0000000000e+00 +4.4721471353e+01 1.0000100000e+04 1.0000000000e+04 0.0000e+00 -1.0000e+00
  1000022 -1    0    0    0    0 -0.0000000000e+00 -0.0000000000e+00 -4.4721471353e+01 1.0000100000e+04 1.0000000000e+04 0.0000e+00 -1.0000e+00
      -24  1    1    2    0    0 -5.7899868529e+02 -2.4826223255e+02 +3.1629284082e+02 7.0942754787e+02 7.9829010000e+01 0.0000e+00 -1.0000e+00
       24  1    1    2    0    0 +2.0694740043e+03 +3.9982253053e+03 +1.4785707224e+03 4.7393113739e+03 7.9829010000e+01 0.0000e+00 1.0000e+00
       22  1    1    2    0    0 +2.0960644581e+03 +3.8816588238e+03 +2.5187088443e+03 5.0798283120e+03 0.0000000000e+00 0.0000e+00 1.0000e+00
       22  1    1    2    0    0 -3.5865397771e+03 -7.6316218966e+03 -4.3135724074e+03 9.4716327663e+03 0.0000000000e+00 0.0000e+00 1.0000e+00
</event>
<event>
 6      1 +1.4834189e-01 1.00437000e+04 7.81653100e-03 6.93609400e-02
  1000022 -1    0    0    0    0 +0.0000000000e+00 +0.0000000000e+00 +4.4721471353e+01 1.0000100000e+04 1.0000000000e+04 0.0000e+00 -1.0000e+00
  1000022 -1    0    0    0    0 -0.0000000000e+00 -0.0000000000e+00 -4.4721471353e+01 1.0000100000e+04 1.0000000000e+04 0.0000e+00 -1.0000e+00
      -24  1    1    2    0    0 -1.3550617634e+03 +3.0551425637e+01 +5.0092605694e+02 1.4472129621e+03 7.9829010000e+01 0.0000e+00 1.0000e+00
       24  1    1    2    0    0 +5.4340127941e+03 +9.5823476812e+00 -8.0805858927e+02 5.4943533034e+03 7.9829010000e+01 0.0000e+00 1.0000e+00
       22  1    1    2    0    0 +4.1841602962e+03 -9.6885739192e+02 -1.5002125444e+03 4.5493427777e+03 0.0000000000e+00 0.0000e+00 -1.0000e+00
       22  1    1    2    0    0 -8.2631113269e+03 +9.2872361860e+02 +1.8073450768e+03 8.5092909568e+03 0.0000000000e+00 0.0000e+00 1.0000e+00
</event>
<event>
 6      1 +1.4834189e-01 1.00933100e+04 7.81653100e-03 6.93312200e-02
  1000022 -1    0    0    0    0 +0.0000000000e+00 +0.0000000000e+00 +4.4721471353e+01 1.0000100000e+04 1.0000000000e+04 0.0000e+00 1.0000e+00
  1000022 -1    0    0    0    0 -0.0000000000e+00 -0.0000000000e+00 -4.4721471353e+01 1.0000100000e+04 1.0000000000e+04 0.0000e+00 1.0000e+00
      -24  1    1    2    0    0 +6.7049067142e+03 +5.4707480537e+03 -3.8626065764e+03 9.4768644893e+03 7.9829010000e+01 0.0000e+00 1.0000e+00
       24  1    1    2    0    0 -6.5491086405e+03 -5.7555303638e+03 +4.2712727356e+03 9.7091244305e+03 7.9829010000e+01 0.0000e+00 1.0000e+00
       22  1    1    2    0    0 -7.8359099718e+01 -1.8114808339e+02 -1.2541834952e+01 1.9776772803e+02 0.0000000000e+00 0.0000e+00 1.0000e+00
       22  1    1    2    0    0 -7.7438973923e+01 +4.6593039348e+02 -3.9612432422e+02 6.1644335221e+02 0.0000000000e+00 0.0000e+00 1.0000e+00
</event>
<event>
 6      1 +1.4834189e-01 1.00207300e+04 7.81653100e-03 6.93747500e-02
  1000022 -1    0    0    0    0 +0.0000000000e+00 +0.0000000000e+00 +4.4721471353e+01 1.0000100000e+04 1.0000000000e+04 0.0000e+00 1.0000e+00
  1000022 -1    0    0    0    0 -0.0000000000e+00 -0.0000000000e+00 -4.4721471353e+01 1.0000100000e+04 1.0000000000e+04 0.0000e+00 1.0000e+00
      -24  1    1    2    0    0 +9.7756653268e+03 -1.2618569227e+03 +1.5580303890e+03 9.9794662603e+03 7.9829010000e+01 0.0000e+00 -1.0000e+00
       24  1    1    2    0    0 -7.5915693818e+03 +8.0404047252e+02 -1.2289684071e+03 7.7327319090e+03 7.9829010000e+01 0.0000e+00 -1.0000e+00
       22  1    1    2    0    0 -1.4491118466e+01 +4.9783388901e+01 -3.0790981268e+01 6.0303091565e+01 0.0000000000e+00 0.0000e+00 -1.0000e+00
       22  1    1    2    0    0 -2.1696048266e+03 +4.0803306130e+02 -2.9827100060e+02 2.2276987391e+03 0.0000000000e+00 0.0000e+00 1.0000e+00
</event>
<event>
 6      1 +1.4834189e-01 1.00378500e+04 7.81653100e-03 6.93644500e-02
  1000022 -1    0    0    0    0 +0.0000000000e+00 +0.0000000000e+00 +4.4721471353e+01 1.0000100000e+04 1.0000000000e+04 0.0000e+00 -1.0000e+00
  1000022 -1    0    0    0    0 -0.0000000000e+00 -0.0000000000e+00 -4.4721471353e+01 1.0000100000e+04 1.0000000000e+04 0.0000e+00 -1.0000e+00
      -24  1    1    2    0    0 -2.1681718993e+02 +2.1022785392e+01 +1.1403125369e+02 2.5851005592e+02 7.9829010000e+01 0.0000e+00 -1.0000e+00
       24  1    1    2    0    0 +1.5828223261e+03 -1.8643940347e+03 -3.6601129235e+03 4.4027367530e+03 7.9829010000e+01 0.0000e+00 -1.0000e+00
       22  1    1    2    0    0 +1.5091964498e+03 -2.3873241960e+03 -4.7887745572e+03 5.5596180175e+03 0.0000000000e+00 0.0000e+00 1.0000e+00
       22  1    1    2    0    0 -2.8752015860e+03 +4.2306954453e+03 +8.3348562271e+03 9.7793351735e+03 0.0000000000e+00 0.0000e+00 1.0000e+00
</event>
<event>
 6      1 +1.4834189e-01 1.01343900e+04 7.81653100e-03 6.93067400e-02
  1000022 -1    0    0    0    0 +0.0000000000e+00 +0.0000000000e+00 +4.4721471353e+01 1.0000100000e+04 1.0000000000e+04 0.0000e+00 -1.0000e+00
  1000022 -1    0    0    0    0 -0.0000000000e+00 -0.0000000000e+00 -4.4721471353e+01 1.0000100000e+04 1.0000000000e+04 0.0000e+00 -1.0000e+00
      -24  1    1    2    0    0 -1.0620394156e+03 +6.4108675966e+03 +3.7500030699e+03 7.5030691558e+03 7.9829010000e+01 0.0000e+00 -1.0000e+00
       24  1    1    2    0    0 +1.3540927293e+02 -4.0426145301e+03 -2.0995292702e+03 4.5580109410e+03 7.9829010000e+01 0.0000e+00 -1.0000e+00
       22  1    1    2    0    0 +8.9529916324e+01 -4.7689691926e+03 -2.3284520260e+03 5.3078028979e+03 0.0000000000e+00 0.0000e+00 -1.0000e+00
       22  1    1    2    0    0 +8.3710022633e+02 +2.4007161261e+03 +6.7797822637e+02 2.6313170053e+03 0.0000000000e+00 0.0000e+00 -1.0000e+00
</event>
<event>
 6      1 +1.4834189e-01 1.02826000e+04 7.81653100e-03 6.92193900e-02
  1000022 -1    0    0    0    0 +0.0000000000e+00 +0.0000000000e+00 +4.4721471353e+01 1.0000100000e+04 1.0000000000e+04 0.0000e+00 1.0000e+00
  1000022 -1    0    0    0    0 -0.0000000000e+00 -0.0000000000e+00 -4.4721471353e+01 1.0000100000e+04 1.0000000000e+04 0.0000e+00 1.0000e+00
      -24  1    1    2    0    0 +3.5601186305e+02 +4.9810689888e+01 -2.7329052273e+03 2.7576020749e+03 7.9829010000e+01 0.0000e+00 -1.0000e+00
       24  1    1    2    0    0 +9.5526811260e+02 -1.8207042296e+03 +2.1614754285e+03 2.9842670386e+03 7.9829010000e+01 0.0000e+00 -1.0000e+00
       22  1    1    2    0    0 +2.5233831161e+03 +3.6907122801e+03 -5.3341074735e+03 6.9599943982e+03 0.0000000000e+00 0.0000e+00 -1.0000e+00
       22  1    1    2    0    0 -3.8346630918e+03 -1.9198187404e+03 +5.9055372722e+03 7.2983364883e+03 0.0000000000e+00 0.0000e+00 -1.0000e+00
</event>
<event>
 6      1 +1.4834189e-01 1.00767100e+04 7.81653100e-03 6.93411400e-02
  1000022 -1    0    0    0    0 +0.0000000000e+00 +0.0000000000e+00 +4.4721471353e+01 1.0000100000e+04 1.0000000000e+04 0.0000e+00 -1.0000e+00
  1000022 -1    0    0    0    0 -0.0000000000e+00 -0.0000000000e+00 -4.4721471353e+01 1.0000100000e+04 1.0000000000e+04 0.0000e+00 -1.0000e+00
      -24  1    1    2    0    0 -7.4988637948e+03 +1.5447372385e+03 -1.1646984520e+03 7.7448090037e+03 7.9829010000e+01 0.0000e+00 1.0000e+00
       24  1    1    2    0    0 +5.9235758850e+02 -5.9798653274e+01 +2.0684773148e+02 6.3531255807e+02 7.9829010000e+01 0.0000e+00 0.0000e+00
       22  1    1    2    0    0 -2.1283856038e+03 -3.6264131301e+02 -8.8102944257e+02 2.3318976991e+03 0.0000000000e+00 0.0000e+00 1.0000e+00
       22  1    1    2    0    0 +9.0348918101e+03 -1.1222972722e+03 +1.8388801631e+03 9.2881807391e+03 0.0000000000e+00 0.0000e+00 1.0000e+00
</event>
<event>
 6      1 +1.4834189e-01 1.00002700e+04 7.81653100e-03 6.93870900e-02
  1000022 -1    0    0    0    0 +0.0000000000e+00 +0.0000000000e+00 +4.4721471353e+01 1.0000100000e+04 1.0000000000e+04 0.0000e+00 -1.0000e+00
  1000022 -1    0    0    0    0 -0.0000000000e+00 -0.0000000000e+00 -4.4721471353e+01 1.0000100000e+04 1.0000000000e+04 0.0000e+00 -1.0000e+00
      -24  1    1    2    0    0 -5.6168426226e+03 +7.9629124303e+03 +9.0438990434e+02 9.7867864587e+03 7.9829010000e+01 0.0000e+00 1.0000e+00
       24  1    1    2    0    0 +5.6294445086e+03 -7.9946090728e+03 -9.1769760821e+02 9.8210468522e+03 7.9829010000e+01 0.0000e+00 1.0000e+00
       22  1    1    2    0    0 -1.2306610262e+02 +1.7250308095e+02 +2.2948503381e+01 2.1314129670e+02 0.0000000000e+00 0.0000e+00 -1.0000e+00
       22  1    1    2    0    0 +1.1046421658e+02 -1.4080643840e+02 -9.6407995129e+00 1.7922539232e+02 0.0000000000e+00 0.0000e+00 1.0000e+00
</event>
<event>
 6      1 +1.4834189e-01 1.01371900e+04 7.81653100e-03 6.93050700e-02
  1000022 -1    0    0    0    0 +0.0000000000e+00 +0.0000000000e+00 +4.4721471353e+01 1.0000100000e+04 1.0000000000e+04 0.0000e+00 1.0000e+00
  1000022 -1    0    0    0    0 -0.0000000000e+00 -0.0000000000e+00 -4.4721471353e+01 1.0000100000e+04 1.0000000000e+04 0.0000e+00 1.0000e+00
      -24  1    1    2    0    0 -4.0224517854e+02 +3.1617064355e+02 +8.8988348343e+02 1.0295777505e+03 7.9829010000e+01 0.0000e+00 -1.0000e+00
       24  1    1    2    0    0 -5.2027860126e+01 -9.2448020149e+02 -1.1803106406e+03 1.5022903915e+03 7.9829010000e+01 0.0000e+00 -1.0000e+00
       22  1    1    2    0    0 +5.7986007037e+03 -4.4364892940e+03 -4.6103515944e+03 8.6349029642e+03 0.0000000000e+00 0.0000e+00 -1.0000e+00
       22  1    1    2    0    0 -5.3443276650e+03 +5.0447988520e+03 +4.9007787516e+03 8.8334288937e+03 0.0000000000e+00 0.0000e+00 -1.0000e+00
</event>
<event>
 6      1 +1.4834189e-01 1.06227200e+04 7.81653100e-03 6.90244100e-02
  1000022 -1    0    0    0    0 +0.0000000000e+00 +0.0000000000e+00 +4.4721471353e+01 1.0000100000e+04 1.0000000000e+04 0.0000e+00 -1.0000e+00
  1000022 -1    0    0    0    0 -0.0000000000e+00 -0.0000000000e+00 -4.4721471353e+01 1.0000100000e+04 1.0000000000e+04 0.0000e+00 -1.0000e+00
      -24  1    1    2    0    0 +5.2332653208e+03 -2.0048197646e+03 +6.3716940093e+03 8.4859428130e+03 7.9829010000e+01 0.0000e+00 -1.0000e+00
       24  1    1    2    0    0 -1.2603053594e+03 +6.5701514594e+02 -2.5418075906e+03 2.9132794235e+03 7.9829010000e+01 0.0000e+00 -1.0000e+00
       22  1    1    2    0    0 -1.1822982636e+03 -3.8189963976e+02 +1.7384335071e+03 2.1367797213e+03 0.0000000000e+00 0.0000e+00 -1.0000e+00
       22  1    1    2    0    0 -2.7906616978e+03 +1.7297042584e+03 -5.5683199257e+03 6.4641980422e+03 0.0000000000e+00 0.0000e+00 -1.0000e+00
</event>
<event>
 6      1 +1.4834189e-01 1.00001300e+04 7.81653100e-03 6.93871800e-02
  1000022 -1    0    0    0    0 +0.0000000000e+00 +0.0000000000e+00 +4.4721471353e+01 1.0000100000e+04 1.0000000000e+04 0.0000e+00 -1.0000e+00
  1000022 -1    0    0    0    0 -0.0000000000e+00 -0.0000000000e+00 -4.4721471353e+01 1.0000100000e+04 1.0000000000e+04 0.0000e+00 -1.0000e+00
      -24  1    1    2    0    0 -6.6884133838e+02 +7.2470246475e+03 -6.8360403390e+03 9.9852158297e+03 7.9829010000e+01 0.0000e+00 1.0000e+00
       24  1    1    2    0    0 +5.3815851940e+02 -5.9410673486e+03 +5.6007228666e+03 8.1829313288e+03 7.9829010000e+01 0.0000e+00 1.0000e+00
       22  1    1    2    0    0 +1.3285513996e+02 -1.3168550261e+03 +1.2451733892e+03 1.8171996085e+03 0.0000000000e+00 0.0000e+00 1.0000e+00
       22  1    1    2    0    0 -2.1723209787e+00 +1.0897727118e+01 -9.8559167750e+00 1.4853232990e+01 0.0000000000e+00 0.0000e+00 1.0000e+00
</event>
<event>
 6      1 +1.4834189e-01 1.03796300e+04 7.81653100e-03 6.91630000e-02
  1000022 -1    0    0    0    0 +0.0000000000e+00 +0.0000000000e+00 +4.4721471353e+01 1.0000100000e+04 1.0000000000e+04 0.0000e+00 -1.0000e+00
  1000022 -1    0    0    0    0 -0.0000000000e+00 -0.0000000000e+00 -4.4721471353e+01 1.0000100000e+04 1.0000000000e+04 0.0000e+00 -1.0000e+00
      -24  1    1    2    0    0 +2.0580801282e+02 -4.1194004381e+03 -1.5070694844e+03 4.3919754108e+03 7.9829010000e+01 0.0000e+00 -1.0000e+00
       24  1    1    2    0    0 +2.4183975457e+03 +7.2624754168e+03 +5.8272479875e+03 9.6205710666e+03 7.9829010000e+01 0.0000e+00 -1.0000e+00
       22  1    1    2    0    0 -2.6206965892e+03 -2.9974941544e+03 -4.2573065247e+03 5.8290377134e+03 0.0000000000e+00 0.0000e+00 -1.0000e+00
       22  1    1    2    0    0 -3.5089692689e+00 -1.4558082433e+02 -6.2871978374e+01 1.5861580925e+02 0.0000000000e+00 0.0000e+00 -1.0000e+00
</event>
<event>
 6      1 +1.4834189e-01 1.00019400e+04 7.81653100e-03 6.93860800e-02
  1000022 -1    0    0    0    0 +0.0000000000e+00 +0.0000000000e+00 +4.4721471353e+01 1.0000100000e+04 1.0000000000e+04 0.0000e+00 -1.0000e+00
  1000022 -1    0    0    0    0 -0.0000000000e+00 -0.0000000000e+00 -4.4721471353e+01 1.0000100000e+04 1.0000000000e+04 0.0000e+00 -1.0000e+00
      -24  1    1    2    0    0 +2.3355241168e+02 +6.7979099532e+03 -6.7097760005e+03 9.5547680824e+03 7.9829010000e+01 0.0000e+00 -1.0000e+00
       24  1    1    2    0    0 -2.6468435789e+02 -7.0715305569e+03 +6.9856328051e+03 9.9439449206e+03 7.9829010000e+01 0.0000e+00 -1.0000e+00
       22  1    1    2    0    0 +4.3809833397e+01 +3.2585935482e+02 -2.9762554507e+02 4.4349135922e+02 0.0000000000e+00 0.0000e+00 -1.0000e+00
       22  1    1    2    0    0 -1.2677887182e+01 -5.2238751119e+01 +2.1768740481e+01 5.7995637801e+01 0.0000000000e+00 0.0000e+00 1.0000e+00
</event>
<event>
 6      1 +1.4834189e-01 1.01348800e+04 7.81653100e-03 6.93064500e-02
  1000022 -1    0    0    0    0 +0.0000000000e+00 +0.0000000000e+00 +4.4721471353e+01 1.0000100000e+04 1.0000000000e+04 0.0000e+00 -1.0000e+00
  1000022 -1    0    0    0    0 -0.0000000000e+00 -0.0000000000e+00 -4.4721471353e+01 1.0000100000e+04 1.0000000000e+04 0.0000e+00 -1.0000e+00
      -24  1    1    2    0    0 +5.4870715617e+02 +3.8408184075e+01 -1.3045074555e+03 1.4179799378e+03 7.9829010000e+01 0.0000e+00 1.0000e+00
       24  1    1    2    0    0 -6.2313014039e+03 +3.4352296061e+03 +6.8328836176e+03 9.8653226423e+03 7.9829010000e+01 0.0000e+00 1.0000e+00
       22  1    1    2    0    0 +6.4598013477e+01 +6.3933097095e+01 -1.3754100794e+02 1.6485712940e+02 0.0000000000e+00 0.0000e+00 1.0000e+00
       22  1    1    2    0    0 +5.6179962342e+03 -3.5375708873e+03 -5.3908351542e+03 8.5520402905e+03 0.0000000000e+00 0.0000e+00 1.0000e+00
</event>
<event>
 6      1 +1.4834189e-01 1.01994200e+04 7.81653100e-03 6.92682300e-02
  1000022 -1    0    0    0    0 +0.0000000000e+00 +0.0000000000e+00 +4.4721471353e+01 1.0000100000e+04 1.0000000000e+04 0.0000e+00 1.0000e+00
  1000022 -1    0    0    0    0 -0.0000000000e+00 -0.0000000000e+00 -4.4721471353e+01 1.0000100000e+04 1.0000000000e+04 0.0000e+00 1.0000e+00
      -24  1    1    2    0    0 -1.7151799735e+03 +9.6158395419e+03 -6.0363357694e+02 9.7865703187e+03 7.9829010000e+01 0.0000e+00 1.0000e+00
       24  1    1    2    0    0 +2.1407526964e+03 -9.3781726972e+03 +3.1533721799e+02 9.6249028814e+03 7.9829010000e+01 0.0000e+00 1.0000e+00
       22  1    1    2    0    0 +2.5005104723e-01 +1.3515323491e+01 -4.3726746221e+00 1.4207279048e+01 0.0000000000e+00 0.0000e+00 1.0000e+00
       22  1    1    2    0    0 -4.2582277403e+02 -2.5118216827e+02 +2.9266903357e+02 5.7451952077e+02 0.0000000000e+00 0.0000e+00 1.0000e+00
</event>
<event>
 6      1 +1.4834189e-01 1.00036600e+04 7.81653100e-03 6.93850400e-02
  1000022 -1    0    0    0    0 +0.0000000000e+00 +0.0000000000e+00 +4.4721471353e+01 1.0000100000e+04 1.0000000000e+04 0.0000e+00 -1.0000e+00
  1000022 -1    0    0    0    0 -0.0000000000e+00 -0.0000000000e+00 -4.4721471353e+01 1.0000100000e+04 1.0000000000e+04 0.0000e+00 -1.0000e+00
      -24  1    1    2    0    0 -3.4701819025e+03 +7.9995158705e+03 +2.6846703680e+02 8.7242686696e+03 7.9829010000e+01 0.0000e+00 -1.0000e+00
       24  1    1    2    0    0 +3.8191392136e+03 -9.0923996234e+03 -1.3892475490e+02 9.8632260444e+03 7.9829010000e+01 0.0000e+00 -1.0000e+00
       22  1    1    2    0    0 -4.2364919073e+02 +1.2019699934e+03 -1.1241375247e+02 1.2793933538e+03 0.0000000000e+00 0.0000e+00 -1.0000e+00
       22  1    1    2    0    0 +7.4691879597e+01 -1.0908624054e+02 -1.7128529435e+01 1.3331193222e+02 0.0000000000e+00 0.0000e+00 -1.0000e+00
</event>
<event>
 6      1 +1.4834189e-01 1.01560300e+04 7.81653100e-03 6.92938900e-02
  1000022 -1    0    0    0    0 +0.0000000000e+00 +0.0000000000e+00 +4.4721471353e+01 1.0000100000e+04 1.0000000000e+04 0.0000e+00 1.0000e+00
  1000022 -1    0    0    0    0 -0.0000000000e+00 -0.0000000000e+00 -4.4721471353e+01 1.0000100000e+04 1.0000000000e+04 0.0000e+00 1.0000e+00
      -24  1    1    2    0    0 -2.9815267351e+02 -2.8821820917e+03 -5.3238297037e+02 2.9471465733e+03 7.9829010000e+01 0.0000e+00 1.0000e+00
       24  1    1    2    0    0 -9.1106040087e+02 +5.4742779328e+03 +8.8153761489e+02 5.6197180692e+03 7.9829010000e+01 0.0000e+00 1.0000e+00
       22  1    1    2    0    0 -2.9288018351e+02 -6.7755515647e+03 -1.2550010044e+03 6.8970214824e+03 0.0000000000e+00 0.0000e+00 1.0000e+00
       22  1    1    2    0    0 +1.5020932579e+03 +4.1834557236e+03 +9.0584635988e+02 4.5363138752e+03 0.0000000000e+00 0.0000e+00 1.0000e+00
</event>
<event>
 6      1 +1.4834189e-01 1.00890200e+04 7.81653100e-03 6.93337800e-02
  1000022 -1    0    0    0    0 +0.0000000000e+00 +0.0000000000e+00 +4.4721471353e+01 1.0000100000e+04 1.0000000000e+04 0.0000e+00 1.0000e+00
  1000022 -1    0    0    0    0 -0.0000000000e+00 -0.0000000000e+00 -4.4721471353e+01 1.0000100000e+04 1.0000000000e+04 0.0000e+00 1.0000e+00
      -24  1    1    2    0    0 +1.0192115601e+03 -2.6078044698e+03 -9.1899513074e+03 9.6073416750e+03 7.9829010000e+01 0.0000e+00 -1.0000e+00
       24  1    1    2    0    0 -1.0502246605e+03 +2.4610649022e+03 +9.5186211312e+03 9.8878882073e+03 7.9829010000e+01 0.0000e+00 -1.0000e+00
       22  1    1    2    0    0 +1.0468168503e+02 -3.4783392926e+01 -2.8310837920e+02 3.0383958593e+02 0.0000000000e+00 0.0000e+00 -1.0000e+00
       22  1    1    2    0    0 -7.3668584621e+01 +1.8152296057e+02 -4.5561444546e+01 2.0113053175e+02 0.0000000000e+00 0.0000e+00 -1.0000e+00
</event>
<event>
 6      1 +1.4834189e-01 7.37198300e+03 7.81653100e-03 7.12792200e-02
  1000022 -1    0    0    0    0 +0.0000000000e+00 +0.0000000000e+00 +4.4721471353e+01 1.0000100000e+04 1.0000000000e+04 0.0000e+00 -1.0000e+00
  1000022 -1    0    0    0    0 -0.0000000000e+00 -0.0000000000e+00 -4.4721471353e+01 1.0000100000e+04 1.0000000000e+04 0.0000e+00 -1.0000e+00
      -24  1    1    2    0    0 +4.1805934725e+03 +3.3194438925e+03 -6.6692792471e+03 8.5429343837e+03 7.9829010000e+01 0.0000e+00 -1.0000e+00
       24  1    1    2    0    0 -2.8011345454e+03 -3.5863013828e+03 -6.7636662350e+01 4.5517974184e+03 7.9829010000e+01 0.0000e+00 -1.0000e+00
       22  1    1    2    0    0 -1.9093188257e+00 -1.2387002221e+01 -8.5148242039e+00 1.5152080835e+01 0.0000000000e+00 0.0000e+00 1.0000e+00
       22  1    1    2    0    0 -1.3775496082e+03 +2.7924449243e+02 +6.7454307337e+03 6.8903161170e+03 0.0000000000e+00 0.0000e+00 -1.0000e+00
</event>
<event>
 6      1 +1.4834189e-01 1.00680200e+04 7.81653100e-03 6.93463400e-02
  1000022 -1    0    0    0    0 +0.0000000000e+00 +0.0000000000e+00 +4.4721471353e+01 1.0000100000e+04 1.0000000000e+04 0.0000e+00 1.0000e+00
  1000022 -1    0    0    0    0 -0.0000000000e+00 -0.0000000000e+00 -4.4721471353e+01 1.0000100000e+04 1.0000000000e+04 0.0000e+00 1.0000e+00
      -24  1    1    2    0    0 -1.7798853963e+02 +8.5961718489e+01 -6.0361406679e+02 6.4014994318e+02 7.9829010000e+01 0.0000e+00 1.0000e+00
       24  1    1    2    0    0 +6.3971397958e+02 +4.7492092551e+03 +8.6544257234e+03 9.8929105826e+03 7.9829010000e+01 0.0000e+00 -1.0000e+00
       22  1    1    2    0    0 -4.6469489929e+02 -4.8738400635e+03 -8.0569553623e+03 9.4278729321e+03 0.0000000000e+00 0.0000e+00 -1.0000e+00
       22  1    1    2    0    0 +2.9694593404e+00 +3.8669089921e+01 +6.1437057724e+00 3.9266542051e+01 0.0000000000e+00 0.0000e+00 -1.0000e+00
</event>
<event>
 6      1 +1.4834189e-01 1.00502000e+04 7.81653100e-03 6.93570300e-02
  1000022 -1    0    0    0    0 +0.0000000000e+00 +0.0000000000e+00 +4.4721471353e+01 1.0000100000e+04 1.0000000000e+04 0.0000e+00 -1.0000e+00
  1000022 -1    0    0    0    0 -0.0000000000e+00 -0.0000000000e+00 -4.4721471353e+01 1.0000100000e+04 1.0000000000e+04 0.0000e+00 -1.0000e+00
      -24  1    1    2    0    0 -3.5226055276e+03 +7.1643356890e+03 +3.1971675329e+03 8.6002737440e+03 7.9829010000e+01 0.0000e+00 -1.0000e+00
       24  1    1    2    0    0 +4.5302145209e+03 -7.8600249836e+03 -3.8414022238e+03 9.8521865626e+03 7.9829010000e+01 0.0000e+00 -1.0000e+00
       22  1    1    2    0    0 +1.8303175327e+01 -9.5876697905e+01 -6.3165685407e+00 9.7812302224e+01 0.0000000000e+00 0.0000e+00 -1.0000e+00
       22  1    1    2    0    0 -1.0259121687e+03 +7.9156599251e+02 +6.5055125942e+02 1.4499273911e+03 0.0000000000e+00 0.0000e+00 1.0000e+00
</event>
<event>
 6      1 +1.4834189e-01 1.20533400e+04 7.81653100e-03 6.82778300e-02
  1000022 -1    0    0    0    0 +0.0000000000e+00 +0.0000000000e+00 +4.4721471353e+01 1.0000100000e+04 1.0000000000e+04 0.0000e+00 1.0000e+00
  1000022 -1    0    0    0    0 -0.0000000000e+00 -0.0000000000e+00 -4.4721471353e+01 1.0000100000e+04 1.0000000000e+04 0.0000e+00 1.0000e+00
      -24  1    1    2    0    0 -1.9611324174e+03 -1.0674778730e+03 +7.0432971320e+03 7.3891783392e+03 7.9829010000e+01 0.0000e+00 1.0000e+00
       24  1    1    2    0    0 +3.2316850808e+02 -6.8954805955e+01 -1.6236893504e+02 3.7673464373e+02 7.9829010000e+01 0.0000e+00 -1.0000e+00
       22  1    1    2    0    0 +5.0871649580e+03 -1.6148750877e+03 -5.3683962715e+03 7.5701220193e+03 0.0000000000e+00 0.0000e+00 1.0000e+00
       22  1    1    2    0    0 -3.4492010487e+03 +2.7513077667e+03 -1.5125319255e+03 4.6641649978e+03 0.0000000000e+00 0.0000e+00 -1.0000e+00
</event>
<event>
 6      1 +1.4834189e-01 1.00002500e+04 7.81653100e-03 6.93871000e-02
  1000022 -1    0    0    0    0 +0.0000000000e+00 +0.0000000000e+00 +4.4721471353e+01 1.0000100000e+04 1.0000000000e+04 0.0000e+00 -1.0000e+00
  1000022 -1    0    0    0    0 -0.0000000000e+00 -0.0000000000e+00 -4.4721471353e+01 1.0000100000e+04 1.0000000000e+04 0.0000e+00 -1.0000e+00
      -24  1    1    2    0    0 +3.5164658183e+03 -8.9529946957e+03 +6.3968757632e+02 9.6403951547e+03 7.9829010000e+01 0.0000e+00 -1.0000e+00
       24  1    1    2    0    0 -3.2007056916e+03 +8.2339801662e+03 -5.8445931520e+02 8.8538642221e+03 7.9829010000e+01 0.0000e+00 -1.0000e+00
       22  1    1    2    0    0 -4.2990671227e+02 +1.0593395579e+03 -8.0600139514e+01 1.1460874585e+03 0.0000000000e+00 0.0000e+00 1.0000e+00
       22  1    1    2    0    0 +1.1414658555e+02 -3.4032502837e+02 +2.5371878390e+01 3.5985316470e+02 0.0000000000e+00 0.0000e+00 -1.0000e+00
</event>
<event>
 6      1 +1.4834189e-01 1.00930400e+04 7.81653100e-03 6.93313800e-02
  1000022 -1    0    0    0    0 +0.0000000000e+00 +0.0000000000e+00 +4.4721471353e+01 1.0000100000e+04 1.0000000000e+04 0.0000e+00 -1.0000e+00
  1000022 -1    0    0    0    0 -0.0000000000e+00 -0.0000000000e+00 -4.4721471353e+01 1.0000100000e+04 1.0000000000e+04 0.0000e+00 -1.0000e+00
      -24  1    1    2    0    0 -2.9701340251e+03 +1.3146671865e+03 -9.1594432837e+03 9.7186326135e+03 7.9829010000e+01 0.0000e+00 -1.0000e+00
       24  1    1    2    0    0 +3.2647265365e+03 -1.2303166591e+03 +7.9040038124e+03 8.6401254260e+03 7.9829010000e+01 0.0000e+00 -1.0000e+00
       22  1    1    2    0    0 -2.2915553000e+02 -8.4382057387e+01 +1.4322459601e+03 1.4529146839e+03 0.0000000000e+00 0.0000e+00 -1.0000e+00
       22  1    1    2    0    0 -6.5436981397e+01 +3.1530019719e-02 -1.7680648882e+02 1.8852727659e+02 0.0000000000e+00 0.0000e+00 1.0000e+00
</event>
<event>
 6      1 +1.4834189e-01 1.00022500e+04 7.81653100e-03 6.93859000e-02
  1000022 -1    0    0    0    0 +0.0000000000e+00 +0.0000000000e+00 +4.4721471353e+01 1.0000100000e+04 1.0000000000e+04 0.0000e+00 -1.0000e+00
  1000022 -1    0    0    0    0 -0.0000000000e+00 -0.0000000000e+00 -4.4721471353e+01 1.0000100000e+04 1.0000000000e+04 0.0000e+00 -1.0000e+00
      -24  1    1    2    0    0 -1.0907623014e+02 +5.1534544840e+02 -3.4556908015e+02 6.3503481413e+02 7.9829010000e+01 0.0000e+00 1.0000e+00
       24  1    1    2    0    0 +1.8771196943e+03 -6.3346777703e+03 +4.5949691235e+03 8.0480950986e+03 7.9829010000e+01 0.0000e+00 -1.0000e+00
       22  1    1    2    0    0 +5.8134707001e+02 -1.3843486591e+03 +1.2507362515e+03 1.9541562876e+03 0.0000000000e+00 0.0000e+00 -1.0000e+00
       22  1    1    2    0    0 -2.3493905342e+03 +7.2036809810e+03 -5.5001362948e+03 9.3629137996e+03 0.0000000000e+00 0.0000e+00 -1.0000e+00
</event>
<event>
 6      1 +1.4834189e-01 1.01526000e+04 7.81653100e-03 6.92959300e-02
  1000022 -1    0    0    0    0 +0.0000000000e+00 +0.0000000000e+00 +4.4721471353e+01 1.0000100000e+04 1.0000000000e+04 0.0000e+00 1.0000e+00
  1000022 -1    0    0    0    0 -0.0000000000e+00 -0.0000000000e+00 -4.4721471353e+01 1.0000100000e+04 1.0000000000e+04 0.0000e+00 1.0000e+00
      -24  1    1    2    0    0 +4.1589421317e+03 -4.3007126454e+03 -4.9336288379e+03 7.7549980719e+03 7.9829010000e+01 0.0000e+00 1.0000e+00
       24  1    1    2    0    0 +1.3746174021e+02 +2.7524905108e+02 +5.4048698446e+01 3.2241541958e+02 7.9829010000e+01 0.0000e+00 1.0000e+00
       22  1    1    2    0    0 -6.5829369978e+03 +4.8629257891e+03 +4.7965357866e+03 9.4862986617e+03 0.0000000000e+00 0.0000e+00 1.0000e+00
       22  1    1    2    0    0 +2.2865331259e+03 -8.3746219473e+02 +8.3044352950e+01 2.4364878468e+03 0.0000000000e+00 0.0000e+00 1.0000e+00
</event>
<event>
 6      1 +1.4834189e-01 1.00910000e+04 7.81653100e-03 6.93326000e-02
  1000022 -1    0    0    0    0 +0.0000000000e+00 +0.0000000000e+00 +4.4721471353e+01 1.0000100000e+04 1.0000000000e+04 0.0000e+00 -1.0000e+00
  1000022 -1    0    0    0    0 -0.0000000000e+00 -0.0000000000e+00 -4.4721471353e+01 1.0000100000e+04 1.0000000000e+04 0.0000e+00 -1.0000e+00
      -24  1    1    2    0    0 +1.5210714549e+03 +9.5261498907e+03 -2.2637819189e+03 9.9092013482e+03 7.9829010000e+01 0.0000e+00 -1.0000e+00
       24  1    1    2    0    0 -2.0510476682e+02 -5.0427399544e+02 -9.6571216376e+01 5.5862232189e+02 7.9829010000e+01 0.0000e+00 0.0000e+00
       22  1    1    2    0    0 -1.1048012674e+03 -8.6069481096e+03 +2.5267662718e+03 9.0379582536e+03 0.0000000000e+00 0.0000e+00 -1.0000e+00
       22  1    1    2    0    0 -2.1116542062e+02 -4.1492778569e+02 -1.6641313655e+02 4.9441807635e+02 0.0000000000e+00 0.0000e+00 -1.0000e+00
</event>
<event>
 6      1 +1.4834189e-01 1.00910700e+04 7.81653100e-03 6.93325600e-02
  1000022 -1    0    0    0    0 +0.0000000000e+00 +0.0000000000e+00 +4.4721471353e+01 1.0000100000e+04 1.0000000000e+04 0.0000e+00 1.0000e+00
  1000022 -1    0    0    0    0 -0.0000000000e+00 -0.0000000000e+00 -4.4721471353e+01 1.0000100000e+04 1.0000000000e+04 0.0000e+00 1.0000e+00
      -24  1    1    2    0    0 -3.2188365645e+03 +4.4757283195e+03 -2.2972982793e+03 5.9730230934e+03 7.9829010000e+01 0.0000e+00 -1.0000e+00
       24  1    1    2    0    0 +6.1801891854e+03 -7.0867968004e+03 +3.1252408427e+03 9.9091336783e+03 7.9829010000e+01 0.0000e+00 -1.0000e+00
       22  1    1    2    0    0 +1.5769695471e+01 +2.0617259246e+02 -3.7156435720e+01 2.1008670089e+02 0.0000000000e+00 0.0000e+00 -1.0000e+00
       22  1    1    2    0    0 -2.9771223164e+03 +2.4048958884e+03 -7.9078612768e+02 3.9079565275e+03 0.0000000000e+00 0.0000e+00 -1.0000e+00
</event>
<event>
 6      1 +1.4834189e-01 1.01620300e+04 7.81653100e-03 6.92903400e-02
  1000022 -1    0    0    0    0 +0.0000000000e+00 +0.0000000000e+00 +4.4721471353e+01 1.0000100000e+04 1.0000000000e+04 0.0000e+00 1.0000e+00
  1000022 -1    0    0    0    0 -0.0000000000e+00 -0.0000000000e+00 -4.4721471353e+01 1.0000100000e+04 1.0000000000e+04 0.0000e+00 1.0000e+00
      -24  1    1    2    0    0 -5.5984479592e+02 -9.0278354949e+02 -1.8057527994e+03 2.0965591277e+03 7.9829010000e+01 0.0000e+00 -1.0000e+00
       24  1    1    2    0    0 +4.6259228519e+03 +3.2731689800e+03 +8.0417956754e+03 9.8381729889e+03 7.9829010000e+01 0.0000e+00 -1.0000e+00
       22  1    1    2    0    0 +1.7077465682e+02 -2.2869174716e+02 -8.9714429199e+01 2.9918652616e+02 0.0000000000e+00 0.0000e+00 1.0000e+00
       22  1    1    2    0    0 -4.2368527128e+03 -2.1416936833e+03 -6.1463284469e+03 7.7662813572e+03 0.0000000000e+00 0.0000e+00 -1.0000e+00
</event>
<event>
 6      1 +1.4834189e-01 1.00415100e+04 7.81653100e-03 6.93622500e-02
  1000022 -1    0    0    0    0 +0.0000000000e+00 +0.0000000000e+00 +4.4721471353e+01 1.0000100000e+04 1.0000000000e+04 0.0000e+00 -1.0000e+00
  1000022 -1    0    0    0    0 -0.0000000000e+00 -0.0000000000e+00 -4.4721471353e+01 1.0000100000e+04 1.0000000000e+04 0.0000e+00 -1.0000e+00
      -24  1    1    2    0    0 -2.6172156793e+03 +8.7538557622e+03 +3.9609865037e+03 9.9586944611e+03 7.9829010000e+01 0.0000e+00 -1.0000e+00
       24  1    1    2    0    0 +1.7881660364e+03 -5.1115160819e+03 -2.2557879835e+03 5.8668634317e+03 7.9829010000e+01 0.0000e+00 -1.0000e+00
       22  1    1    2    0    0 +6.3836962408e+01 -1.5790734536e+03 -9.7086386365e+02 1.8547573349e+03 0.0000000000e+00 0.0000e+00 -1.0000e+00
       22  1    1    2    0    0 +7.6521268048e+02 -2.0632662266e+03 -7.3433465658e+02 2.3198847722e+03 0.0000000000e+00 0.0000e+00 -1.0000e+00
</event>
<event>
 6      1 +1.4834189e-01 1.00884400e+04 7.81653100e-03 6.93341300e-02
  1000022 -1    0    0    0    0 +0.0000000000e+00 +0.0000000000e+00 +4.4721471353e+01 1.0000100000e+04 1.0000000000e+04 0.0000e+00 1.0000e+00
  1000022 -1    0    0    0    0 -0.0000000000e+00 -0.0000000000e+00 -4.4721471353e+01 1.0000100000e+04 1.0000000000e+04 0.0000e+00 1.0000e+00
      -24  1    1    2    0    0 +4.5109167688e+03 -8.4578208655e+03 -2.5206029345e+03 9.9117564393e+03 7.9829010000e+01 0.0000e+00 1.0000e+00
       24  1    1    2    0    0 -2.8762480929e+03 +6.6624370560e+03 +1.7741911859e+03 7.4709435583e+03 7.9829010000e+01 0.0000e+00 1.0000e+00
       22  1    1    2    0    0 -1.5513391581e+03 +1.8440605842e+03 +6.9438554555e+02 2.5078644117e+03 0.0000000000e+00 0.0000e+00 1.0000e+00
       22  1    1    2    0    0 -8.3329517798e+01 -4.8676774681e+01 +5.2026203092e+01 1.0963559065e+02 0.0000000000e+00 0.0000e+00 1.0000e+00
</event>
<event>
 6      1 +1.4834189e-01 1.10086900e+04 7.81653100e-03 6.88118500e-02
  1000022 -1    0    0    0    0 +0.0000000000e+00 +0.0000000000e+00 +4.4721471353e+01 1.0000100000e+04 1.0000000000e+04 0.0000e+00 1.0000e+00
  1000022 -1    0    0    0    0 -0.0000000000e+00 -0.0000000000e+00 -4.4721471353e+01 1.0000100000e+04 1.0000000000e+04 0.0000e+00 1.0000e+00
      -24  1    1    2    0    0 +1.2449779754e+03 -1.3264906513e+03 +7.0467546756e+03 7.2782327344e+03 7.9829010000e+01 0.0000e+00 -1.0000e+00
       24  1    1    2    0    0 -3.0419920117e+03 -1.6714697272e+03 -8.2368526675e+03 8.9386599099e+03 7.9829010000e+01 0.0000e+00 -1.0000e+00
       22  1    1    2    0    0 -2.3058210307e+01 -1.4987577771e+01 -4.5131399129e+01 5.2850276606e+01 0.0000000000e+00 0.0000e+00 1.0000e+00
       22  1    1    2    0    0 +1.8200722466e+03 +3.0129479563e+03 +1.2352293911e+03 3.7304570791e+03 0.0000000000e+00 0.0000e+00 -1.0000e+00
</event>
<event>
 6      1 +1.4834189e-01 1.00142500e+04 7.81653100e-03 6.93786600e-02
  1000022 -1    0    0    0    0 +0.0000000000e+00 +0.0000000000e+00 +4.4721471353e+01 1.0000100000e+04 1.0000000000e+04 0.0000e+00 -1.0000e+00
  1000022 -1    0    0    0    0 -0.0000000000e+00 -0.0000000000e+00 -4.4721471353e+01 1.0000100000e+04 1.0000000000e+04 0.0000e+00 -1.0000e+00
      -24  1    1    2    0    0 -6.6952777259e+03 +4.7859435482e+03 +5.5839993668e+03 9.9458243033e+03 7.9829010000e+01 0.0000e+00 -1.0000e+00
       24  1    1    2    0    0 +1.4030290436e+03 -1.3855975236e+03 -1.4472118851e+03 2.4472772433e+03 7.9829010000e+01 0.0000e+00 -1.0000e+00
       22  1    1    2    0    0 +5.3105317922e+03 -3.4256065892e+03 -4.1620385370e+03 7.5669738471e+03 0.0000000000e+00 0.0000e+00 -1.0000e+00
       22  1    1    2    0    0 -1.8283109901e+01 +2.5260564562e+01 +2.5251055319e+01 4.0124606220e+01 0.0000000000e+00 0.0000e+00 -1.0000e+00
</event>
<event>
 6      1 +1.4834189e-01 1.00561500e+04 7.81653100e-03 6.93534600e-02
  1000022 -1    0    0    0    0 +0.0000000000e+00 +0.0000000000e+00 +4.4721471353e+01 1.0000100000e+04 1.0000000000e+04 0.0000e+00 -1.0000e+00
  1000022 -1    0    0    0    0 -0.0000000000e+00 -0.0000000000e+00 -4.4721471353e+01 1.0000100000e+04 1.0000000000e+04 0.0000e+00 -1.0000e+00
      -24  1    1    2    0    0 +7.3298241296e+03 +6.7018819262e+03 -4.8593233075e+02 9.9440457573e+03 7.9829010000e+01 0.0000e+00 1.0000e+00
       24  1    1    2    0    0 -4.7537513716e+02 -4.4035661931e+02 -7.2168191306e+01 6.5686862604e+02 7.9829010000e+01 0.0000e+00 0.0000e+00
       22  1    1    2    0    0 -7.0620078008e+01 -1.0804270884e+00 +1.4223662210e+02 1.5880686196e+02 0.0000000000e+00 0.0000e+00 1.0000e+00
       22  1    1    2    0    0 -6.7838289144e+03 -6.2604448798e+03 +4.1586389996e+02 9.2404787547e+03 0.0000000000e+00 0.0000e+00 1.0000e+00
</event>
<event>
 6      1 +1.4834189e-01 6.70255700e+03 7.81653100e-03 7.18915600e-02
  1000022 -1    0    0    0    0 +0.0000000000e+00 +0.0000000000e+00 +4.4721471353e+01 1.0000100000e+04 1.0000000000e+04 0.0000e+00 -1.0000e+00
  1000022 -1    0    0    0    0 -0.0000000000e+00 -0.0000000000e+00 -4.4721471353e+01 1.0000100000e+04 1.0000000000e+04 0.0000e+00 -1.0000e+00
      -24  1    1    2    0    0 +2.4145051673e+02 -1.5042813240e+03 -1.5191819132e+02 1.5331707215e+03 7.9829010000e+01 0.0000e+00 -1.0000e+00
       24  1    1    2    0    0 +5.5354387588e+03 +2.0587573942e+03 -1.7040497746e+03 6.1473345904e+03 7.9829010000e+01 0.0000e+00 1.0000e+00
       22  1    1    2    0    0 -7.0783658108e+03 +2.9520333580e+03 +3.2481398104e+03 8.3287559531e+03 0.0000000000e+00 0.0000e+00 1.0000e+00
       22  1    1    2    0    0 +1.3014765352e+03 -3.5065094282e+03 -1.3921718444e+03 3.9909387350e+03 0.0000000000e+00 0.0000e+00 1.0000e+00
</event>
<event>
 6      1 +1.4834189e-01 1.01497100e+04 7.81653100e-03 6.92976400e-02
  1000022 -1    0    0    0    0 +0.0000000000e+00 +0.0000000000e+00 +4.4721471353e+01 1.0000100000e+04 1.0000000000e+04 0.0000e+00 1.0000e+00
  1000022 -1    0    0    0    0 -0.0000000000e+00 -0.0000000000e+00 -4.4721471353e+01 1.0000100000e+04 1.0000000000e+04 0.0000e+00 1.0000e+00
      -24  1    1    2    0    0 +3.1392568763e+03 +4.8999868613e+03 +7.8577916798e+03 9.7783468812e+03 7.9829010000e+01 0.0000e+00 -1.0000e+00
       24  1    1    2    0    0 -3.1748124559e+03 -5.1944659871e+03 -7.6612153566e+03 9.7858318212e+03 7.9829010000e+01 0.0000e+00 -1.0000e+00
       22  1    1    2    0    0 +9.7266580910e+01 +3.0817437032e+02 -1.8296439559e+02 3.7135993368e+02 0.0000000000e+00 0.0000e+00 1.0000e+00
       22  1    1    2    0    0 -6.1711001339e+01 -1.3695244485e+01 -1.3611927561e+01 6.4661363886e+01 0.0000000000e+00 0.0000e+00 1.0000e+00
</event>
<event>
 6      1 +1.4834189e-01 1.00534500e+04 7.81653100e-03 6.93550800e-02
  1000022 -1    0    0    0    0 +0.0000000000e+00 +0.0000000000e+00 +4.4721471353e+01 1.0000100000e+04 1.0000000000e+04 0.0000e+00 -1.0000e+00
  1000022 -1    0    0    0    0 -0.0000000000e+00 -0.0000000000e+00 -4.4721471353e+01 1.0000100000e+04 1.0000000000e+04 0.0000e+00 -1.0000e+00
      -24  1    1    2    0    0 +1.4883304847e+03 +7.5629668221e+02 +5.6260596328e+03 5.8690742001e+03 7.9829010000e+01 0.0000e+00 -1.0000e+00
       24  1    1    2    0    0 -2.4375702756e+03 -1.6691474361e+03 -9.2958333667e+03 9.7543166170e+03 7.9829010000e+01 0.0000e+00 -1.0000e+00
       22  1    1    2    0    0 +9.1569913598e+02 +7.3183547926e+02 +3.9055510587e+03 4.0776730065e+03 0.0000000000e+00 0.0000e+00 -1.0000e+00
       22  1    1    2    0    0 +3.3540654902e+01 +1.8101527460e+02 -2.3577732479e+02 2.9913617644e+02 0.0000000000e+00 0.0000e+00 1.0000e+00
</event>
<event>
 6      1 +1.4834189e-01 1.01592200e+04 7.81653100e-03 6.92920000e-02
  1000022 -1    0    0    0    0 +0.0000000000e+00 +0.0000000000e+00 +4.4721471353e+01 1.0000100000e+04 1.0000000000e+04 0.0000e+00 1.0000e+00
  1000022 -1    0    0    0    0 -0.0000000000e+00 -0.0000000000e+00 -4.4721471353e+01 1.0000100000e+04 1.0000000000e+04 0.0000e+00 1.0000e+00
      -24  1    1    2    0    0 -2.9079001430e+03 +2.3607957734e+03 +9.0653725928e+03 9.8090057010e+03 7.9829010000e+01 0.0000e+00 -1.0000e+00
       24  1    1    2    0    0 +3.1346409439e+03 -2.5881006935e+03 -8.9332177186e+03 9.8149371127e+03 7.9829010000e+01 0.0000e+00 -1.0000e+00
       22  1    1    2    0    0 -2.2123472545e+02 +2.1060015990e+02 -1.5885451597e+02 3.4428474892e+02 0.0000000000e+00 0.0000e+00 1.0000e+00
       22  1    1    2    0    0 -5.5060755122e+00 +1.6704760215e+01 +2.6699641790e+01 3.1972437397e+01 0.0000000000e+00 0.0000e+00 -1.0000e+00
</event>
<event>
 6      1 +1.4834189e-01 1.04533600e+04 7.81653100e-03 6.91205700e-02
  1000022 -1    0    0    0    0 +0.0000000000e+00 +0.0000000000e+00 +4.4721471353e+01 1.0000100000e+04 1.0000000000e+04 0.0000e+00 1.0000e+00
  1000022 -1    0    0    0    0 -0.0000000000e+00 -0.0000000000e+00 -4.4721471353e+01 1.0000100000e+04 1.0000000000e+04 0.0000e+00 1.0000e+00
      -24  1    1    2    0    0 -7.6064667779e+02 -1.1930194278e+03 +8.1656671975e+03 8.2877241855e+03 7.9829010000e+01 0.0000e+00 1.0000e+00
       24  1    1    2    0    0 +2.2471273728e+03 +2.9316869011e+02 -8.4954340197e+03 8.7928551202e+03 7.9829010000e+01 0.0000e+00 1.0000e+00
       22  1    1    2    0    0 -1.6807568427e+03 +8.6424564390e+02 +1.0574178162e+03 2.1656399828e+03 0.0000000000e+00 0.0000e+00 1.0000e+00
       22  1    1    2    0    0 +1.9427614770e+02 +3.5605093751e+01 -7.2765099396e+02 7.5398071148e+02 0.0000000000e+00 0.0000e+00 -1.0000e+00
</event>
<event>
 6      1 +1.4834189e-01 1.00501900e+04 7.81653100e-03 6.93570400e-02
  1000022 -1    0    0    0    0 +0.0000000000e+00 +0.0000000000e+00 +4.4721471353e+01 1.0000100000e+04 1.0000000000e+04 0.0000e+00 -1.0000e+00
  1000022 -1    0    0    0    0 -0.0000000000e+00 -0.0000000000e+00 -4.4721471353e+01 1.0000100000e+04 1.0000000000e+04 0.0000e+00 -1.0000e+00
      -24  1    1    2    0    0 -8.2004847717e+03 +4.4125288145e+03 -3.5039827088e+03 9.9500064585e+03 7.9829010000e+01 0.0000e+00 -1.0000e+00
       24  1    1    2    0    0 +1.3343962102e+02 -4.8041220063e+01 +1.5417685698e+02 2.2418132248e+02 7.9829010000e+01 0.0000e+00 1.0000e+00
       22  1    1    2    0    0 +2.6292274417e+01 +1.0696896179e+01 +1.1312656640e+02 1.1663330274e+02 0.0000000000e+00 0.0000e+00 -1.0000e+00
       22  1    1    2    0    0 +8.0407528762e+03 -4.3751844906e+03 +3.2366792854e+03 9.7093789163e+03 0.0000000000e+00 0.0000e+00 -1.0000e+00
</event>
<event>
 6      1 +1.4834189e-01 1.00046100e+04 7.81653100e-03 6.93844700e-02
  1000022 -1    0    0    0    0 +0.0000000000e+00 +0.0000000000e+00 +4.4721471353e+01 1.0000100000e+04 1.0000000000e+04 0.0000e+00 1.0000e+00
  1000022 -1    0    0    0    0 -0.0000000000e+00 -0.0000000000e+00 -4.4721471353e+01 1.0000100000e+04 1.0000000000e+04 0.0000e+00 1.0000e+00
      -24  1    1    2    0    0 +3.9160742863e+02 +6.6336728938e+03 +7.0269919915e+03 9.6718127339e+03 7.9829010000e+01 0.0000e+00 -1.0000e+00
       24  1    1    2    0    0 -3.6918851240e+02 -2.9943304365e+03 -3.0868437366e+03 4.3170929855e+03 7.9829010000e+01 0.0000e+00 1.0000e+00
       22  1    1    2    0    0 -2.7961357989e+01 -3.8605353053e+03 -4.1765242402e+03 5.6875187393e+03 0.0000000000e+00 0.0000e+00 -1.0000e+00
       22  1    1    2    0    0 +5.5424417549e+00 +2.2119284795e+02 +2.3637598537e+02 3.2377554124e+02 0.0000000000e+00 0.0000e+00 -1.0000e+00
</event>
<event>
 6      1 +1.4834189e-01 1.01914600e+04 7.81653100e-03 6.92729300e-02
  1000022 -1    0    0    0    0 +0.0000000000e+00 +0.0000000000e+00 +4.4721471353e+01 1.0000100000e+04 1.0000000000e+04 0.0000e+00 -1.0000e+00
  1000022 -1    0    0    0    0 -0.0000000000e+00 -0.0000000000e+00 -4.4721471353e+01 1.0000100000e+04 1.0000000000e+04 0.0000e+00 -1.0000e+00
      -24  1    1    2    0    0 +2.9215312720e+01 +1.0227430466e+02 +2.4976216192e+01 1.3531463374e+02 7.9829010000e+01 0.0000e+00 0.0000e+00
       24  1    1    2    0    0 -4.0782455516e+03 -8.4350661993e+03 -2.9021709393e+03 9.8087408671e+03 7.9829010000e+01 0.0000e+00 1.0000e+00
       22  1    1    2    0    0 +4.3921844601e+03 +7.7210260490e+03 +2.9276510324e+03 9.3528962439e+03 0.0000000000e+00 0.0000e+00 1.0000e+00
       22  1    1    2    0    0 -3.4315422127e+02 +6.1176584566e+02 -5.0456309278e+01 7.0324825534e+02 0.0000000000e+00 0.0000e+00 -1.0000e+00
</event>
<event>
 6      1 +1.4834189e-01 1.00007300e+04 7.81653100e-03 6.93868100e-02
  1000022 -1    0    0    0    0 +0.0000000000e+00 +0.0000000000e+00 +4.4721471353e+01 1.0000100000e+04 1.0000000000e+04 0.0000e+00 -1.0000e+00
  1000022 -1    0    0    0    0 -0.0000000000e+00 -0.0000000000e+00 -4.4721471353e+01 1.0000100000e+04 1.0000000000e+04 0.0000e+00 -1.0000e+00
      -24  1    1    2    0    0 +3.8737616322e+03 +9.0215546477e+03 +1.3274845622e+03 9.9077275587e+03 7.9829010000e+01 0.0000e+00 -1.0000e+00
       24  1    1    2    0    0 -3.8719290306e+03 -9.0087323438e+03 -1.3390565219e+03 9.8968953667e+03 7.9829010000e+01 0.0000e+00 1.0000e+00
       22  1    1    2    0    0 +3.9463364657e+01 +7.9807202615e+01 +2.6902770535e+01 9.3007020174e+01 0.0000000000e+00 0.0000e+00 1.0000e+00
       22  1    1    2    0    0 -4.1295966225e+01 -9.2629506505e+01 -1.5330810769e+01 1.0257005441e+02 0.0000000000e+00 0.0000e+00 -1.0000e+00
</event>
<event>
 6      1 +1.4834189e-01 1.08267400e+04 7.81653100e-03 6.89109500e-02
  1000022 -1    0    0    0    0 +0.0000000000e+00 +0.0000000000e+00 +4.4721471353e+01 1.0000100000e+04 1.0000000000e+04 0.0000e+00 1.0000e+00
  1000022 -1    0    0    0    0 -0.0000000000e+00 -0.0000000000e+00 -4.4721471353e+01 1.0000100000e+04 1.0000000000e+04 0.0000e+00 1.0000e+00
      -24  1    1    2    0    0 -1.2621254829e+03 +9.0855798344e+03 -7.2976023309e+01 9.1734628049e+03 7.9829010000e+01 0.0000e+00 1.0000e+00
       24  1    1    2    0    0 +1.5341088170e+03 -3.2431605358e+03 +8.1846203895e+02 3.6807380922e+03 7.9829010000e+01 0.0000e+00 1.0000e+00
       22  1    1    2    0    0 -1.7657394132e+03 -3.3602528045e+03 -1.6092999284e+03 4.1229820331e+03 0.0000000000e+00 0.0000e+00 1.0000e+00
       22  1    1    2    0    0 +1.4937560791e+03 -2.4821664942e+03 +8.6381391278e+02 3.0230170698e+03 0.0000000000e+00 0.0000e+00 1.0000e+00
</event>
<event>
 6      1 +1.4834189e-01 1.00065500e+04 7.81653100e-03 6.93833000e-02
  1000022 -1    0    0    0    0 +0.0000000000e+00 +0.0000000000e+00 +4.4721471353e+01 1.0000100000e+04 1.0000000000e+04 0.0000e+00 -1.0000e+00
  1000022 -1    0    0    0    0 -0.0000000000e+00 -0.0000000000e+00 -4.4721471353e+01 1.0000100000e+04 1.0000000000e+04 0.0000e+00 -1.0000e+00
      -24  1    1    2    0    0 +7.2884373051e+03 +6.5133306093e+02 +3.5167740415e+03 8.1190901852e+03 7.9829010000e+01 0.0000e+00 1.0000e+00
       24  1    1    2    0    0 -7.8224389033e+03 -6.8472394676e+02 -3.5341784380e+03 8.6113986774e+03 7.9829010000e+01 0.0000e+00 1.0000e+00
       22  1    1    2    0    0 -1.2536520384e+03 -9.5872082814e+01 -5.7427309351e+02 1.3822534050e+03 0.0000000000e+00 0.0000e+00 -1.0000e+00
       22  1    1    2    0    0 +1.7876536366e+03 +1.2926296864e+02 +5.9167749000e+02 1.8874577324e+03 0.0000000000e+00 0.0000e+00 1.0000e+00
</event>
<event>
 6      1 +1.4834189e-01 1.00156600e+04 7.81653100e-03 6.93778100e-02
  1000022 -1    0    0    0    0 +0.0000000000e+00 +0.0000000000e+00 +4.4721471353e+01 1.0000100000e+04 1.0000000000e+04 0.0000e+00 1.0000e+00
  1000022 -1    0    0    0    0 -0.0000000000e+00 -0.0000000000e+00 -4.4721471353e+01 1.0000100000e+04 1.0000000000e+04 0.0000e+00 1.0000e+00
      -24  1    1    2    0    0 -8.6165160894e+03 -2.1508987955e+03 +4.5413362193e+03 9.9750098985e+03 7.9829010000e+01 0.0000e+00 -1.0000e+00
       24  1    1    2    0    0 +8.5299939289e+03 +2.1613470612e+03 -4.4705405674e+03 9.8703760406e+03 7.9829010000e+01 0.0000e+00 -1.0000e+00
       22  1    1    2    0    0 -9.5428520220e+00 -3.6586381534e+01 -1.4913521435e+01 4.0645325193e+01 0.0000000000e+00 0.0000e+00 -1.0000e+00
       22  1    1    2    0    0 +9.6065012448e+01 +2.6138115822e+01 -5.5882130488e+01 1.1416873575e+02 0.0000000000e+00 0.0000e+00 1.0000e+00
</event>
<event>
 6      1 +1.4834189e-01 1.00803800e+04 7.81653100e-03 6.93389500e-02
  1000022 -1    0    0    0    0 +0.0000000000e+00 +0.0000000000e+00 +4.4721471353e+01 1.0000100000e+04 1.0000000000e+04 0.0000e+00 1.0000e+00
  1000022 -1    0    0    0    0 -0.0000000000e+00 -0.0000000000e+00 -4.4721471353e+01 1.0000100000e+04 1.0000000000e+04 0.0000e+00 1.0000e+00
      -24  1    1    2    0    0 +1.9815791231e+03 +4.5099478258e+03 -1.9127816201e+03 5.2850157435e+03 7.9829010000e+01 0.0000e+00 1.0000e+00
       24  1    1    2    0    0 -3.6218524875e+03 -5.7479730670e+03 +3.5397008382e+03 7.6611268437e+03 7.9829010000e+01 0.0000e+00 1.0000e+00
       22  1    1    2    0    0 -8.1020014772e+02 -1.6440199933e+03 +1.3200283753e+03 2.2586945188e+03 0.0000000000e+00 0.0000e+00 1.0000e+00
       22  1    1    2    0    0 +2.4504735121e+03 +2.8820452345e+03 -2.9469475933e+03 4.7953628940e+03 0.0000000000e+00 0.0000e+00 1.0000e+00
</event>
<event>
 6      1 +1.4834189e-01 9.71336900e+03 7.81653100e-03 6.95633100e-02
  1000022 -1    0    0    0    0 +0.0000000000e+00 +0.0000000000e+00 +4.4721471353e+01 1.0000100000e+04 1.0000000000e+04 0.0000e+00 -1.0000e+00
  1000022 -1    0    0    0    0 -0.0000000000e+00 -0.0000000000e+00 -4.4721471353e+01 1.0000100000e+04 1.0000000000e+04 0.0000e+00 -1.0000e+00
      -24  1    1    2    0    0 +5.2471593998e+02 +1.2452097078e+02 -1.7240109114e+02 5.7177539025e+02 7.9829010000e+01 0.0000e+00 -1.0000e+00
       24  1    1    2    0    0 -1.5519095545e+03 +5.0629105825e+03 +8.1083855694e+03 9.6847186869e+03 7.9829010000e+01 0.0000e+00 1.0000e+00
       22  1    1    2    0    0 +8.5815614474e+00 +7.6077471264e+01 +7.3122532148e+01 1.0586939850e+02 0.0000000000e+00 0.0000e+00 1.0000e+00
       22  1    1    2    0    0 +1.0186120530e+03 -5.2635090246e+03 -8.0091070104e+03 9.6378365243e+03 0.0000000000e+00 0.0000e+00 1.0000e+00
</event>
<event>
 6      1 +1.4834189e-01 1.00917400e+04 7.81653100e-03 6.93321500e-02
  1000022 -1    0    0    0    0 +0.0000000000e+00 +0.0000000000e+00 +4.4721471353e+01 1.0000100000e+04 1.0000000000e+04 0.0000e+00 -1.0000e+00
  1000022 -1    0    0    0    0 -0.0000000000e+00 -0.0000000000e+00 -4.4721471353e+01 1.0000100000e+04 1.0000000000e+04 0.0000e+00 -1.0000e+00
      -24  1    1    2    0    0 +5.0039184496e+03 +6.4448566874e+03 -2.3942740811e+03 8.5037814305e+03 7.9829010000e+01 0.0000e+00 -1.0000e+00
       24  1    1    2    0    0 -2.6794701654e+03 -4.4158733229e+03 +2.1772529035e+03 5.6059165573e+03 7.9829010000e+01 0.0000e+00 -1.0000e+00
       22  1    1    2    0    0 +8.9830528701e+02 +1.0756078584e+03 -9.6056684792e+01 1.4046748878e+03 0.0000000000e+00 0.0000e+00 -1.0000e+00
       22  1    1    2    0    0 -3.2227535712e+03 -3.1045912229e+03 +3.1307786230e+02 4.4858271244e+03 0.0000000000e+00 0.0000e+00 -1.0000e+00
</event>
<event>
 6      1 +1.4834189e-01 1.04120600e+04 7.81653100e-03 6.91443000e-02
  1000022 -1    0    0    0    0 +0.0000000000e+00 +0.0000000000e+00 +4.4721471353e+01 1.0000100000e+04 1.0000000000e+04 0.0000e+00 1.0000e+00
  1000022 -1    0    0    0    0 -0.0000000000e+00 -0.0000000000e+00 -4.4721471353e+01 1.0000100000e+04 1.0000000000e+04 0.0000e+00 1.0000e+00
      -24  1    1    2    0    0 -7.3028664091e+03 -3.1657177342e+03 +5.3453265252e+03 9.5881444969e+03 7.9829010000e+01 0.0000e+00 -1.0000e+00
       24  1    1    2    0    0 +5.7208141248e+03 +3.5507184385e+03 -5.4534248357e+03 8.6649599416e+03 7.9829010000e+01 0.0000e+00 -1.0000e+00
       22  1    1    2    0    0 +1.3788638822e+02 -9.0806103848e+01 -1.8120795752e+02 2.4514226160e+02 0.0000000000e+00 0.0000e+00 1.0000e+00
       22  1    1    2    0    0 +1.4441658961e+03 -2.9419460040e+02 +2.8930626804e+02 1.5019532999e+03 0.0000000000e+00 0.0000e+00 -1.0000e+00
</event>
<event>
 6      1 +1.4834189e-01 1.00022200e+04 7.81653100e-03 6.93859200e-02
  1000022 -1    0    0    0    0 +0.0000000000e+00 +0.0000000000e+00 +4.4721471353e+01 1.0000100000e+04 1.0000000000e+04 0.0000e+00 -1.0000e+00
  1000022 -1    0    0    0    0 -0.0000000000e+00 -0.0000000000e+00 -4.4721471353e+01 1.0000100000e+04 1.0000000000e+04 0.0000e+00 -1.0000e+00
      -24  1    1    2    0    0 -5.6504604248e+03 +5.5194930049e+03 -5.4543557994e+03 9.5994206024e+03 7.9829010000e+01 0.0000e+00 -1.0000e+00
       24  1    1    2    0    0 +9.6893038229e+02 -1.0111780120e+03 +9.8136624219e+02 1.7119460943e+03 7.9829010000e+01 0.0000e+00 1.0000e+00
       22  1    1    2    0    0 +4.8816176826e+03 -4.7953074029e+03 +4.6726040501e+03 8.2860360183e+03 0.0000000000e+00 0.0000e+00 -1.0000e+00
       22  1    1    2    0    0 -2.0008764009e+02 +2.8699240992e+02 -1.9961449290e+02 4.0279728505e+02 0.0000000000e+00 0.0000e+00 -1.0000e+00
</event>
<event>
 6      1 +1.4834189e-01 7.85350700e+03 7.81653100e-03 7.08780400e-02
  1000022 -1    0    0    0    0 +0.0000000000e+00 +0.0000000000e+00 +4.4721471353e+01 1.0000100000e+04 1.0000000000e+04 0.0000e+00 -1.0000e+00
  1000022 -1    0    0    0    0 -0.0000000000e+00 -0.0000000000e+00 -4.4721471353e+01 1.0000100000e+04 1.0000000000e+04 0.0000e+00 -1.0000e+00
      -24  1    1    2    0    0 +1.3092687773e+03 +3.6145183395e+03 +2.9281542756e+02 3.8562988866e+03 7.9829010000e+01 0.0000e+00 -1.0000e+00
       24  1    1    2    0    0 -6.8509413056e+02 -2.9454658252e+02 +1.7484557274e+01 7.5019333347e+02 7.9829010000e+01 0.0000e+00 -1.0000e+00
       22  1    1    2    0    0 -7.2763586425e+03 -4.1534995160e+03 -1.6947555644e+03 8.5480494703e+03 0.0000000000e+00 0.0000e+00 -1.0000e+00
       22  1    1    2    0    0 +6.6521839958e+03 +8.3352775906e+02 +1.3844555796e+03 6.8456583096e+03 0.0000000000e+00 0.0000e+00 -1.0000e+00
</event>
<event>
 6      1 +1.4834189e-01 1.00358500e+04 7.81653100e-03 6.93656500e-02
  1000022 -1    0    0    0    0 +0.0000000000e+00 +0.0000000000e+00 +4.4721471353e+01 1.0000100000e+04 1.0000000000e+04 0.0000e+00 -1.0000e+00
  1000022 -1    0    0    0    0 -0.0000000000e+00 -0.0000000000e+00 -4.4721471353e+01 1.0000100000e+04 1.0000000000e+04 0.0000e+00 -1.0000e+00
      -24  1    1    2    0    0 -3.0483479796e+03 -7.4311609463e+03 -5.3848133246e+02 8.0505225439e+03 7.9829010000e+01 0.0000e+00 -1.0000e+00
       24  1    1    2    0    0 +3.7970295404e+03 +8.9983285051e+03 +5.7576368343e+02 9.7839269062e+03 7.9829010000e+01 0.0000e+00 -1.0000e+00
       22  1    1    2    0    0 -6.5259736032e+02 -1.7990576360e+03 -1.5856560741e+01 1.9138294393e+03 0.0000000000e+00 0.0000e+00 -1.0000e+00
       22  1    1    2    0    0 -9.6084200439e+01 +2.3189007716e+02 -2.1425790231e+01 2.5192111056e+02 0.0000000000e+00 0.0000e+00 -1.0000e+00
</event>
<event>
 6      1 +1.4834189e-01 1.04018000e+04 7.81653100e-03 6.91502100e-02
  1000022 -1    0    0    0    0 +0.0000000000e+00 +0.0000000000e+00 +4.4721471353e+01 1.0000100000e+04 1.0000000000e+04 0.0000e+00 1.0000e+00
  1000022 -1    0    0    0    0 -0.0000000000e+00 -0.0000000000e+00 -4.4721471353e+01 1.0000100000e+04 1.0000000000e+04 0.0000e+00 1.0000e+00
      -24  1    1    2    0    0 +7.0726154404e+03 +4.5589389706e+03 -4.6170412387e+03 9.5983986257e+03 7.9829010000e+01 0.0000e+00 1.0000e+00
       24  1    1    2    0    0 -1.6723467592e+03 +1.3703745266e+02 +9.2859011355e+02 1.9194205418e+03 7.9829010000e+01 0.0000e+00 -1.0000e+00
       22  1    1    2    0    0 -1.1398838511e+03 -6.0725861308e+02 -3.3831046599e+02 1.3351225369e+03 0.0000000000e+00 0.0000e+00 -1.0000e+00
       22  1    1    2    0    0 -4.2603848300e+03 -4.0887178102e+03 +4.0267615912e+03 7.1472582956e+03 0.0000000000e+00 0.0000e+00 1.0000e+00
</event>
<event>
 6      1 +1.4834189e-01 1.00589200e+04 7.81653100e-03 6.93518000e-02
  1000022 -1    0    0    0    0 +0.0000000000e+00 +0.0000000000e+00 +4.4721471353e+01 1.0000100000e+04 1.0000000000e+04 0.0000e+00 -1.0000e+00
  1000022 -1    0    0    0    0 -0.0000000000e+00 -0.0000000000e+00 -4.4721471353e+01 1.0000100000e+04 1.0000000000e+04 0.0000e+00 -1.0000e+00
      -24  1    1    2    0    0 +7.6390080070e+02 -5.3318231923e+03 -8.2469957239e+03 9.8504413164e+03 7.9829010000e+01 0.0000e+00 -1.0000e+00
       24  1    1    2    0    0 -1.1286199042e+03 +4.8583961125e+03 +7.6616270514e+03 9.1424667032e+03 7.9829010000e+01 0.0000e+00 -1.0000e+00
       22  1    1    2    0    0 +3.5857576403e+02 +5.2681295494e+02 +6.5861244329e+02 9.1644902667e+02 0.0000000000e+00 0.0000e+00 -1.0000e+00
       22  1    1    2    0    0 +6.1433395182e+00 -5.3385875091e+01 -7.3243770753e+01 9.0842953682e+01 0.0000000000e+00 0.0000e+00 1.0000e+00
</event>
<event>
 6      1 +1.4834189e-01 1.02723400e+04 7.81653100e-03 6.92253900e-02
  1000022 -1    0    0    0    0 +0.0000000000e+00 +0.0000000000e+00 +4.4721471353e+01 1.0000100000e+04 1.0000000000e+04 0.0000e+00 1.0000e+00
  1000022 -1    0    0    0    0 -0.0000000000e+00 -0.0000000000e+00 -4.4721471353e+01 1.0000100000e+04 1.0000000000e+04 0.0000e+00 1.0000e+00
      -24  1    1    2    0    0 +3.6584201676e+03 -8.9127396737e+03 -1.3430776880e+03 9.7278567506e+03 7.9829010000e+01 0.0000e+00 -1.0000e+00
       24  1    1    2    0    0 -2.6957362762e+02 +9.8461791360e+02 +3.5045385810e+02 1.0822813654e+03 7.9829010000e+01 0.0000e+00 0.0000e+00
       22  1    1    2    0    0 -1.6746945652e+03 +5.5866612369e+03 +1.9255737074e+03 6.1419231325e+03 0.0000000000e+00 0.0000e+00 -1.0000e+00
       22  1    1    2    0    0 -1.7141519748e+03 +2.3414605231e+03 -9.3294987756e+02 3.0481387515e+03 0.0000000000e+00 0.0000e+00 -1.0000e+00
</event>
<event>
 6      1 +1.4834189e-01 1.00129300e+04 7.81653100e-03 6.93794500e-02
  1000022 -1    0    0    0    0 +0.0000000000e+00 +0.0000000000e+00 +4.4721471353e+01 1.0000100000e+04 1.0000000000e+04 0.0000e+00 -1.0000e+00
  1000022 -1    0    0    0    0 -0.0000000000e+00 -0.0000000000e+00 -4.4721471353e+01 1.0000100000e+04 1.0000000000e+04 0.0000e+00 -1.0000e+00
      -24  1    1    2    0    0 -1.7446934664e+01 -7.1270464019e+01 +2.4912910891e+02 2.7170178195e+02 7.9829010000e+01 0.0000e+00 -1.0000e+00
       24  1    1    2    0    0 -1.6987495759e+03 +5.2984622186e+02 -5.0881786894e+03 5.3909574462e+03 7.9829010000e+01 0.0000e+00 1.0000e+00
       22  1    1    2    0    0 +2.8613362659e+03 -9.7844382087e+02 +9.2599637279e+03 9.7412281453e+03 0.0000000000e+00 0.0000e+00 1.0000e+00
       22  1    1    2    0    0 -1.1451397554e+03 +5.1986806303e+02 -4.4209141474e+03 4.5963126265e+03 0.0000000000e+00 0.0000e+00 1.0000e+00
</event>
<event>
 6      1 +1.4834189e-01 1.00149700e+04 7.81653100e-03 6.93782200e-02
  1000022 -1    0    0    0    0 +0.0000000000e+00 +0.0000000000e+00 +4.4721471353e+01 1.0000100000e+04 1.0000000000e+04 0.0000e+00 1.0000e+00
  1000022 -1    0    0    0    0 -0.0000000000e+00 -0.0000000000e+00 -4.4721471353e+01 1.0000100000e+04 1.0000000000e+04 0.0000e+00 1.0000e+00
      -24  1    1    2    0    0 +1.7606913471e+02 +1.9192086379e+02 -1.6413783646e+02 3.1803751092e+02 7.9829010000e+01 0.0000e+00 1.0000e+00
       24  1    1    2    0    0 -2.0819599763e+01 -1.3953525799e+02 -3.9532836973e+01 1.6685041203e+02 7.9829010000e+01 0.0000e+00 -1.0000e+00
       22  1    1    2    0    0 +7.4796249725e+03 +5.9643440813e+03 +1.5850415009e+03 9.6969349079e+03 0.0000000000e+00 0.0000e+00 -1.0000e+00
       22  1    1    2    0    0 -7.6348745075e+03 -6.0167296871e+03 -1.3813708274e+03 9.8183771691e+03 0.0000000000e+00 0.0000e+00 -1.0000e+00
</event>
<event>
 6      1 +1.4834189e-01 1.00197300e+04 7.81653100e-03 6.93753500e-02
  1000022 -1    0    0    0    0 +0.0000000000e+00 +0.0000000000e+00 +4.4721471353e+01 1.0000100000e+04 1.0000000000e+04 0.0000e+00 1.0000e+00
  1000022 -1    0    0    0    0 -0.0000000000e+00 -0.0000000000e+00 -4.4721471353e+01 1.0000100000e+04 1.0000000000e+04 0.0000e+00 1.0000e+00
      -24  1    1    2    0    0 -4.4339623238e+03 +7.2321489672e+03 -5.2573189775e+03 9.9804697321e+03 7.9829010000e+01 0.0000e+00 -1.0000e+00
       24  1    1    2    0    0 +3.9435397963e+03 -6.2386407517e+03 +4.6679561432e+03 8.7331742098e+03 7.9829010000e+01 0.0000e+00 -1.0000e+00
       22  1    1    2    0    0 +4.2836337285e+02 -6.5195524803e+02 +5.0508009281e+02 9.2932595185e+02 0.0000000000e+00 0.0000e+00 -1.0000e+00
       22  1    1    2    0    0 +6.2059154643e+01 -3.4155296744e+02 +8.4282741565e+01 3.5723010619e+02 0.0000000000e+00 0.0000e+00 1.0000e+00
</event>
<event>
 6      1 +1.4834189e-01 1.00024500e+04 7.81653100e-03 6.93857700e-02
  1000022 -1    0    0    0    0 +0.0000000000e+00 +0.0000000000e+00 +4.4721471353e+01 1.0000100000e+04 1.0000000000e+04 0.0000e+00 -1.0000e+00
  1000022 -1    0    0    0    0 -0.0000000000e+00 -0.0000000000e+00 -4.4721471353e+01 1.0000100000e+04 1.0000000000e+04 0.0000e+00 -1.0000e+00
      -24  1    1    2    0    0 -8.6960870517e+03 -4.7529832191e+03 +1.0806760078e+03 9.9693035261e+03 7.9829010000e+01 0.0000e+00 1.0000e+00
       24  1    1    2    0    0 +8.5427299996e+03 +4.6015622957e+03 -1.0624251837e+03 9.7615434921e+03 7.9829010000e+01 0.0000e+00 1.0000e+00
       22  1    1    2    0    0 -2.7506838860e+01 -6.9051740712e+00 -2.1748058595e+00 2.8443582642e+01 0.0000000000e+00 0.0000e+00 -1.0000e+00
       22  1    1    2    0    0 +1.8086389094e+02 +1.5832609753e+02 -1.6076018275e+01 2.4090939909e+02 0.0000000000e+00 0.0000e+00 -1.0000e+00
</event>
<event>
 6      1 +1.4834189e-01 1.00033100e+04 7.81653100e-03 6.93852600e-02
  1000022 -1    0    0    0    0 +0.0000000000e+00 +0.0000000000e+00 +4.4721471353e+01 1.0000100000e+04 1.0000000000e+04 0.0000e+00 -1.0000e+00
  1000022 -1    0    0    0    0 -0.0000000000e+00 -0.0000000000e+00 -4.4721471353e+01 1.0000100000e+04 1.0000000000e+04 0.0000e+00 -1.0000e+00
      -24  1    1    2    0    0 -4.3496998627e+03 +3.9411260768e+03 -8.0919161926e+03 9.9968917164e+03 7.9829010000e+01 0.0000e+00 -1.0000e+00
       24  1    1    2    0    0 +4.3006655878e+03 -3.8896862805e+03 +8.0068928500e+03 9.8864599146e+03 7.9829010000e+01 0.0000e+00 -1.0000e+00
       22  1    1    2    0    0 +2.7434825555e+00 -1.3372454506e+01 +1.0638259106e+00 1.3692368737e+01 0.0000000000e+00 0.0000e+00 -1.0000e+00
       22  1    1    2    0    0 +4.6290792366e+01 -3.8067341715e+01 +8.3959516690e+01 1.0315600034e+02 0.0000000000e+00 0.0000e+00 -1.0000e+00
</event>
<event>
 6      1 +1.4834189e-01 1.00151000e+04 7.81653100e-03 6.93781400e-02
  1000022 -1    0    0    0    0 +0.0000000000e+00 +0.0000000000e+00 +4.4721471353e+01 1.0000100000e+04 1.0000000000e+04 0.0000e+00 1.0000e+00
  1000022 -1    0    0    0    0 -0.0000000000e+00 -0.0000000000e+00 -4.4721471353e+01 1.0000100000e+04 1.0000000000e+04 0.0000e+00 1.0000e+00
      -24  1    1    2    0    0 +3.5447458200e+03 +2.4130823607e+03 +6.9431720816e+03 8.1610171323e+03 7.9829010000e+01 0.0000e+00 -1.0000e+00
       24  1    1    2    0    0 -4.3529896328e+03 -2.8977391314e+03 -8.5013948232e+03 9.9812573069e+03 7.9829010000e+01 0.0000e+00 -1.0000e+00
       22  1    1    2    0    0 +1.5311001589e+01 -3.0130323776e+01 -1.7546167953e+00 3.3842899707e+01 0.0000000000e+00 0.0000e+00 -1.0000e+00
       22  1    1    2    0    0 +7.9293281113e+02 +5.1478709453e+02 +1.5599773584e+03 1.8240826611e+03 0.0000000000e+00 0.0000e+00 -1.0000e+00
</event>
<event>
 6      1 +1.4834189e-01 1.00057300e+04 7.81653100e-03 6.93838000e-02
  1000022 -1    0    0    0    0 +0.0000000000e+00 +0.0000000000e+00 +4.4721471353e+01 1.0000100000e+04 1.0000000000e+04 0.0000e+00 -1.0000e+00
  1000022 -1    0    0    0    0 -0.0000000000e+00 -0.0000000000e+00 -4.4721471353e+01 1.0000100000e+04 1.0000000000e+04 0.0000e+00 -1.0000e+00
      -24  1    1    2    0    0 -1.6285123285e+03 +9.7519758082e+03 -3.6071399797e+02 9.8939158995e+03 7.9829010000e+01 0.0000e+00 -1.0000e+00
       24  1    1    2    0    0 +1.6520626682e+03 -9.8514267666e+03 +3.2118626043e+02 9.9944711557e+03 7.9829010000e+01 0.0000e+00 -1.0000e+00
       22  1    1    2    0    0 -2.0602831871e+01 +8.0980128208e+01 +4.0949635296e+01 9.3054448988e+01 0.0000000000e+00 0.0000e+00 -1.0000e+00
       22  1    1    2    0    0 -2.9475078501e+00 +1.8470830217e+01 -1.4218977641e+00 1.8758495800e+01 0.0000000000e+00 0.0000e+00 1.0000e+00
</event>
<event>
 6      1 +1.4834189e-01 1.00005100e+04 7.81653100e-03 6.93869500e-02
  1000022 -1    0    0    0    0 +0.0000000000e+00 +0.0000000000e+00 +4.4721471353e+01 1.0000100000e+04 1.0000000000e+04 0.0000e+00 1.0000e+00
  1000022 -1    0    0    0    0 -0.0000000000e+00 -0.0000000000e+00 -4.4721471353e+01 1.0000100000e+04 1.0000000000e+04 0.0000e+00 1.0000e+00
      -24  1    1    2    0    0 +7.3345964395e+03 -6.6349862074e+03 -3.6860823129e+02 9.8975548294e+03 7.9829010000e+01 0.0000e+00 1.0000e+00
       24  1    1    2    0    0 -7.3459107883e+03 +6.6428730439e+03 +3.5949312336e+02 9.9108917643e+03 7.9829010000e+01 0.0000e+00 1.0000e+00
       22  1    1    2    0    0 +7.7054469958e+01 -6.6715757894e+01 -6.6359889203e+00 1.0213921892e+02 0.0000000000e+00 0.0000e+00 -1.0000e+00
       22  1    1    2    0    0 -6.5740121164e+01 +5.8828921443e+01 +1.5751096841e+01 8.9614187384e+01 0.0000000000e+00 0.0000e+00 1.0000e+00
</event>
<event>
 6      1 +1.4834189e-01 1.00108300e+04 7.81653100e-03 6.93807200e-02
  1000022 -1    0    0    0    0 +0.0000000000e+00 +0.0000000000e+00 +4.4721471353e+01 1.0000100000e+04 1.0000000000e+04 0.0000e+00 -1.0000e+00
  1000022 -1    0    0    0    0 -0.0000000000e+00 -0.0000000000e+00 -4.4721471353e+01 1.0000100000e+04 1.0000000000e+04 0.0000e+00 -1.0000e+00
      -24  1    1    2    0    0 -7.9514603443e+02 -7.7485237040e+03 -5.5457268862e+03 9.5620780260e+03 7.9829010000e+01 0.0000e+00 1.0000e+00
       24  1    1    2    0    0 -8.8156870185e+01 +7.3649618241e+03 +5.2635616705e+03 9.0532805344e+03 7.9829010000e+01 0.0000e+00 1.0000e+00
       22  1    1    2    0    0 +5.5827776048e+02 +6.9285330339e+02 +2.9077034685e+02 9.3609142314e+02 0.0000000000e+00 0.0000e+00 1.0000e+00
       22  1    1    2    0    0 +3.2502514413e+02 -3.0929142354e+02 -8.6051311818e+00 4.4875001647e+02 0.0000000000e+00 0.0000e+00 1.0000e+00
</event>
<event>
 6      1 +1.4834189e-01 1.00004100e+04 7.81653100e-03 6.93870000e-02
  1000022 -1    0    0    0    0 +0.0000000000e+00 +0.0000000000e+00 +4.4721471353e+01 1.0000100000e+04 1.0000000000e+04 0.0000e+00 1.0000e+00
  1000022 -1    0    0    0    0 -0.0000000000e+00 -0.0000000000e+00 -4.4721471353e+01 1.0000100000e+04 1.0000000000e+04 0.0000e+00 1.0000e+00
      -24  1    1    2    0    0 -4.4676276290e+03 +8.3732182904e+03 -2.9543631568e+03 9.9400762322e+03 7.9829010000e+01 0.0000e+00 1.0000e+00
       24  1    1    2    0    0 +3.9902766159e+03 -7.4384306808e+03 +2.6092722254e+03 8.8355663475e+03 7.9829010000e+01 0.0000e+00 1.0000e+00
       22  1    1    2    0    0 +5.0331656892e+02 -9.8867893685e+02 +3.5297746166e+02 1.1642193510e+03 0.0000000000e+00 0.0000e+00 -1.0000e+00
       22  1    1    2    0    0 -2.5965555877e+01 +5.3891327254e+01 -7.8865302799e+00 6.0338069285e+01 0.0000000000e+00 0.0000e+00 1.0000e+00
</event>
<event>
 6      1 +1.4834189e-01 1.00565600e+04 7.81653100e-03 6.93532200e-02
  1000022 -1    0    0    0    0 +0.0000000000e+00 +0.0000000000e+00 +4.4721471353e+01 1.0000100000e+04 1.0000000000e+04 0.0000e+00 1.0000e+00
  1000022 -1    0    0    0    0 -0.0000000000e+00 -0.0000000000e+00 -4.4721471353e+01 1.0000100000e+04 1.0000000000e+04 0.0000e+00 1.0000e+00
      -24  1    1    2    0    0 +3.2816669814e+02 +3.6129017342e+03 +6.4171471275e+03 7.3720351498e+03 7.9829010000e+01 0.0000e+00 1.0000e+00
       24  1    1    2    0    0 -6.7237558742e+02 -4.6396542463e+03 -8.7687599453e+03 9.9436413906e+03 7.9829010000e+01 0.0000e+00 1.0000e+00
       22  1    1    2    0    0 +2.3882199835e+01 +8.7261811873e+02 +2.0105759884e+03 2.1919052319e+03 0.0000000000e+00 0.0000e+00 1.0000e+00
       22  1    1    2    0    0 +3.2032668945e+02 +1.5413439337e+02 +3.4103682937e+02 4.9261822762e+02 0.0000000000e+00 0.0000e+00 1.0000e+00
</event>
<event>
 6      1 +1.4834189e-01 1.01132800e+04 7.81653100e-03 6.93193000e-02
  1000022 -1    0    0    0    0 +0.0000000000e+00 +0.0000000000e+00 +4.4721471353e+01 1.0000100000e+04 1.0000000000e+04 0.0000e+00 1.0000e+00
  1000022 -1    0    0    0    0 -0.0000000000e+00 -0.0000000000e+00 -4.4721471353e+01 1.0000100000e+04 1.0000000000e+04 0.0000e+00 1.0000e+00
      -24  1    1    2    0    0 -1.3849669379e+02 -1.3794118342e+02 +3.8597186756e+02 4.3995006269e+02 7.9829010000e+01 0.0000e+00 1.0000e+00
       24  1    1    2    0    0 +5.9355933729e+03 +3.7225235253e+03 -4.3149301933e+03 8.2288179788e+03 7.9829010000e+01 0.0000e+00 -1.0000e+00
       22  1    1    2    0    0 -6.4123838545e+03 -4.0151193325e+03 +5.6573282000e+03 9.4469684193e+03 0.0000000000e+00 0.0000e+00 -1.0000e+00
       22  1    1    2    0    0 +6.1528717543e+02 +4.3053699068e+02 -1.7283698742e+03 1.8844635392e+03 0.0000000000e+00 0.0000e+00 -1.0000e+00
</event>
<event>
 6      1 +1.4834189e-01 1.00005700e+04 7.81653100e-03 6.93869100e-02
  1000022 -1    0    0    0    0 +0.0000000000e+00 +0.0000000000e+00 +4.4721471353e+01 1.0000100000e+04 1.0000000000e+04 0.0000e+00 1.0000e+00
  1000022 -1    0    0    0    0 -0.0000000000e+00 -0.0000000000e+00 -4.4721471353e+01 1.0000100000e+04 1.0000000000e+04 0.0000e+00 1.0000e+00
      -24  1    1    2    0    0 -5.4275189161e+03 -9.1736835277e+02 -8.0396426571e+03 9.7438058788e+03 7.9829010000e+01 0.0000e+00 1.0000e+00
       24  1    1    2    0    0 +5.5780197879e+03 +9.2790664787e+02 +8.2282228188e+03 9.9842545505e+03 7.9829010000e+01 0.0000e+00 1.0000e+00
       22  1    1    2    0    0 +9.9242164069e+00 +2.4322981782e+00 +1.1483538256e+01 1.5371330346e+01 0.0000000000e+00 0.0000e+00 -1.0000e+00
       22  1    1    2    0    0 -1.6042508816e+02 -1.2970593285e+01 -2.0006370000e+02 2.5676824037e+02 0.0000000000e+00 0.0000e+00 1.0000e+00
</event>
<event>
 6      1 +1.4834189e-01 1.07239500e+04 7.81653100e-03 6.89678000e-02
  1000022 -1    0    0    0    0 +0.0000000000e+00 +0.0000000000e+00 +4.4721471353e+01 1.0000100000e+04 1.0000000000e+04 0.0000e+00 1.0000e+00
  1000022 -1    0    0    0    0 -0.0000000000e+00 -0.0000000000e+00 -4.4721471353e+01 1.0000100000e+04 1.0000000000e+04 0.0000e+00 1.0000e+00
      -24  1    1    2    0    0 +1.2421122891e+02 -1.8840277496e+03 -1.8227473272e+03 2.6255988803e+03 7.9829010000e+01 0.0000e+00 1.0000e+00
       24  1    1    2    0    0 -5.6616363732e+03 +5.1593885639e+03 +5.2315437207e+03 9.2762513522e+03 7.9829010000e+01 0.0000e+00 1.0000e+00
       22  1    1    2    0    0 +1.4752846814e+03 -4.3507668749e+02 +6.7150793720e+02 1.6782966141e+03 0.0000000000e+00 0.0000e+00 -1.0000e+00
       22  1    1    2    0    0 +4.0621404629e+03 -2.8402841268e+03 -4.0803043308e+03 6.4200531535e+03 0.0000000000e+00 0.0000e+00 1.0000e+00
</event>
<event>
 6      1 +1.4834189e-01 1.00639500e+04 7.81653100e-03 6.93487800e-02
  1000022 -1    0    0    0    0 +0.0000000000e+00 +0.0000000000e+00 +4.4721471353e+01 1.0000100000e+04 1.0000000000e+04 0.0000e+00 -1.0000e+00
  1000022 -1    0    0    0    0 -0.0000000000e+00 -0.0000000000e+00 -4.4721471353e+01 1.0000100000e+04 1.0000000000e+04 0.0000e+00 -1.0000e+00
      -24  1    1    2    0    0 +6.0870962715e+03 +3.6979079108e+03 +4.4028402950e+03 8.3736873162e+03 7.9829010000e+01 0.0000e+00 1.0000e+00
       24  1    1    2    0    0 -1.9845309691e+02 -1.8478286918e+02 +1.0047311983e+02 2.9999309836e+02 7.9829010000e+01 0.0000e+00 -1.0000e+00
       22  1    1    2    0    0 +1.1814268093e+03 +6.2131264297e+02 +8.1227448812e+02 1.5625583350e+03 0.0000000000e+00 0.0000e+00 -1.0000e+00
       22  1    1    2    0    0 -7.0700699840e+03 -4.1344376846e+03 -5.3155879030e+03 9.7639612504e+03 0.0000000000e+00 0.0000e+00 1.0000e+00
</event>
<event>
 6      1 +1.4834189e-01 1.00190200e+04 7.81653100e-03 6.93757900e-02
  1000022 -1    0    0    0    0 +0.0000000000e+00 +0.0000000000e+00 +4.4721471353e+01 1.0000100000e+04 1.0000000000e+04 0.0000e+00 1.0000e+00
  1000022 -1    0    0    0    0 -0.0000000000e+00 -0.0000000000e+00 -4.4721471353e+01 1.0000100000e+04 1.0000000000e+04 0.0000e+00 1.0000e+00
      -24  1    1    2    0    0 -8.8992767187e+03 +3.8211148383e+03 +2.1231274535e+03 9.9152452101e+03 7.9829010000e+01 0.0000e+00 -1.0000e+00
       24  1    1    2    0    0 +8.8708556038e+03 -3.8794950910e+03 -2.0850034191e+03 9.9043512272e+03 7.9829010000e+01 0.0000e+00 -1.0000e+00
       22  1    1    2    0    0 +6.5679636497e+01 -3.6114314849e+01 -1.6889017171e+01 7.6832918000e+01 0.0000000000e+00 0.0000e+00 1.0000e+00
       22  1    1    2    0    0 -3.7258521608e+01 +9.4494567553e+01 -2.1235017216e+01 1.0377064462e+02 0.0000000000e+00 0.0000e+00 1.0000e+00
</event>
<event>
 6      1 +1.4834189e-01 1.00125900e+04 7.81653100e-03 6.93796600e-02
  1000022 -1    0    0    0    0 +0.0000000000e+00 +0.0000000000e+00 +4.4721471353e+01 1.0000100000e+04 1.0000000000e+04 0.0000e+00 1.0000e+00
  1000022 -1    0    0    0    0 -0.0000000000e+00 -0.0000000000e+00 -4.4721471353e+01 1.0000100000e+04 1.0000000000e+04 0.0000e+00 1.0000e+00
      -24  1    1    2    0    0 -4.6009409901e+02 +1.7749955533e+02 -1.3453338491e+02 5.1736309743e+02 7.9829010000e+01 0.0000e+00 0.0000e+00
       24  1    1    2    0    0 +5.0182270534e+03 -3.7838213017e+03 +1.9749021247e+03 6.5883622756e+03 7.9829010000e+01 0.0000e+00 0.0000e+00
       22  1    1    2    0    0 -7.1548457441e+03 +5.5581682971e+03 -2.8415138795e+03 9.4952226708e+03 0.0000000000e+00 0.0000e+00 -1.0000e+00
       22  1    1    2    0    0 +2.5967127898e+03 -1.9518465508e+03 +1.0011451398e+03 3.3992519561e+03 0.0000000000e+00 0.0000e+00 -1.0000e+00
</event>
<event>
 6      1 +1.4834189e-01 1.00303000e+04 7.81653100e-03 6.93689900e-02
  1000022 -1    0    0    0    0 +0.0000000000e+00 +0.0000000000e+00 +4.4721471353e+01 1.0000100000e+04 1.0000000000e+04 0.0000e+00 1.0000e+00
  1000022 -1    0    0    0    0 -0.0000000000e+00 -0.0000000000e+00 -4.4721471353e+01 1.0000100000e+04 1.0000000000e+04 0.0000e+00 1.0000e+00
      -24  1    1    2    0    0 -3.2888542261e+03 +8.6887827580e+03 -3.1965448400e+03 9.8252623131e+03 7.9829010000e+01 0.0000e+00 1.0000e+00
       24  1    1    2    0    0 +3.0269458984e+03 -7.8627240553e+03 +2.7753337659e+03 8.8709459036e+03 7.9829010000e+01 0.0000e+00 1.0000e+00
       22  1    1    2    0    0 -1.5800658788e+02 +1.1995006674e+02 +5.1848462815e+01 2.0504234544e+02 0.0000000000e+00 0.0000e+00 1.0000e+00
       22  1    1    2    0    0 +4.1991491562e+02 -9.4600876951e+02 +3.6936261126e+02 1.0989494379e+03 0.0000000000e+00 0.0000e+00 -1.0000e+00
</event>
<event>
 6      1 +1.4834189e-01 1.02628800e+04 7.81653100e-03 6.92309300e-02
  1000022 -1    0    0    0    0 +0.0000000000e+00 +0.0000000000e+00 +4.4721471353e+01 1.0000100000e+04 1.0000000000e+04 0.0000e+00 -1.0000e+00
  1000022 -1    0    0    0    0 -0.0000000000e+00 -0.0000000000e+00 -4.4721471353e+01 1.0000100000e+04 1.0000000000e+04 0.0000e+00 -1.0000e+00
      -24  1    1    2    0    0 -5.3796784440e+02 -1.2684120079e+03 +1.1882862579e+03 1.8211741611e+03 7.9829010000e+01 0.0000e+00 1.0000e+00
       24  1    1    2    0    0 +2.0546374800e+03 +1.9181881384e+03 -2.5680266687e+02 2.8237034528e+03 7.9829010000e+01 0.0000e+00 -1.0000e+00
       22  1    1    2    0    0 -6.6074437671e+03 -5.2530223374e+03 -9.9505754658e+01 8.4417094364e+03 0.0000000000e+00 0.0000e+00 -1.0000e+00
       22  1    1    2    0    0 +5.0907741315e+03 +4.6032462069e+03 -8.3197783638e+02 6.9136129498e+03 0.0000000000e+00 0.0000e+00 -1.0000e+00
</event>
<event>
 6      1 +1.4834189e-01 1.00032100e+04 7.81653100e-03 6.93853200e-02
  1000022 -1    0    0    0    0 +0.0000000000e+00 +0.0000000000e+00 +4.4721471353e+01 1.0000100000e+04 1.0000000000e+04 0.0000e+00 1.0000e+00
  1000022 -1    0    0    0    0 -0.0000000000e+00 -0.0000000000e+00 -4.4721471353e+01 1.0000100000e+04 1.0000000000e+04 0.0000e+00 1.0000e+00
      -24  1    1    2    0    0 -7.2972335092e+03 -5.9907660153e+03 -3.2157845802e+02 9.4471519366e+03 7.9829010000e+01 0.0000e+00 1.0000e+00
       24  1    1    2    0    0 +6.4484205428e+03 +4.5053640123e+03 +2.1721768949e+02 7.8698150280e+03 7.9829010000e+01 0.0000e+00 1.0000e+00
       22  1    1    2    0    0 +1.3278159482e+03 +1.6575528482e+03 -1.1952246600e+02 2.1271723618e+03 0.0000000000e+00 0.0000e+00 1.0000e+00
       22  1    1    2    0    0 -4.7900298181e+02 -1.7215084515e+02 +2.2388323453e+02 5.5606067364e+02 0.0000000000e+00 0.0000e+00 -1.0000e+00
</event>
<event>
 6      1 +1.4834189e-01 1.01552600e+04 7.81653100e-03 6.92943500e-02
  1000022 -1    0    0    0    0 +0.0000000000e+00 +0.0000000000e+00 +4.4721471353e+01 1.0000100000e+04 1.0000000000e+04 0.0000e+00 1.0000e+00
  1000022 -1    0    0    0    0 -0.0000000000e+00 -0.0000000000e+00 -4.4721471353e+01 1.0000100000e+04 1.0000000000e+04 0.0000e+00 1.0000e+00
      -24  1    1    2    0    0 +2.0494372014e+03 -7.8634079497e+03 +5.3424149487e+03 9.7252839332e+03 7.9829010000e+01 0.0000e+00 -1.0000e+00
       24  1    1    2    0    0 -1.8120328496e+03 +8.1103283863e+03 -5.2778462721e+03 9.8449440590e+03 7.9829010000e+01 0.0000e+00 -1.0000e+00
       22  1    1    2    0    0 -2.6357039967e+02 -1.7271469472e+02 -1.1620035720e+02 3.3586045371e+02 0.0000000000e+00 0.0000e+00 -1.0000e+00
       22  1    1    2    0    0 +2.6166047851e+01 -7.4205741844e+01 +5.1631680608e+01 9.4111554154e+01 0.0000000000e+00 0.0000e+00 1.0000e+00
</event>
<event>
 6      1 +1.4834189e-01 1.00192300e+04 7.81653100e-03 6.93756600e-02
  1000022 -1    0    0    0    0 +0.0000000000e+00 +0.0000000000e+00 +4.4721471353e+01 1.0000100000e+04 1.0000000000e+04 0.0000e+00 1.0000e+00
  1000022 -1    0    0    0    0 -0.0000000000e+00 -0.0000000000e+00 -4.4721471353e+01 1.0000100000e+04 1.0000000000e+04 0.0000e+00 1.0000e+00
      -24  1    1    2    0    0 -3.4226634539e+02 +8.9876566614e+03 -4.3264606119e+03 9.9809695227e+03 7.9829010000e+01 0.0000e+00 -1.0000e+00
       24  1    1    2    0    0 +2.3079785220e+02 -8.8165538007e+03 +4.1920526016e+03 9.7654782911e+03 7.9829010000e+01 0.0000e+00 -1.0000e+00
       22  1    1    2    0    0 +1.1803039741e+02 -1.5976772587e+02 +1.3573978218e+02 2.4058717631e+02 0.0000000000e+00 0.0000e+00 1.0000e+00
       22  1    1    2    0    0 -6.5619042184e+00 -1.1335134866e+01 -1.3317718360e+00 1.3165009898e+01 0.0000000000e+00 0.0000e+00 1.0000e+00
</event>
<event>
 6      1 +1.4834189e-01 1.01879200e+04 7.81653100e-03 6.92750200e-02
  1000022 -1    0    0    0    0 +0.0000000000e+00 +0.0000000000e+00 +4.4721471353e+01 1.0000100000e+04 1.0000000000e+04 0.0000e+00 -1.0000e+00
  1000022 -1    0    0    0    0 -0.0000000000e+00 -0.0000000000e+00 -4.4721471353e+01 1.0000100000e+04 1.0000000000e+04 0.0000e+00 -1.0000e+00
      -24  1    1    2    0    0 +3.3223054856e+03 -4.2118319040e+03 +7.9834460598e+03 9.6186810628e+03 7.9829010000e+01 0.0000e+00 1.0000e+00
       24  1    1    2    0    0 -3.3623525182e+03 +4.6918725744e+03 -7.9344435667e+03 9.8122805757e+03 7.9829010000e+01 0.0000e+00 1.0000e+00
       22  1    1    2    0    0 -1.8164744342e+00 -4.1411494261e+02 -1.5098915738e+02 4.4078590145e+02 0.0000000000e+00 0.0000e+00 -1.0000e+00
       22  1    1    2    0    0 +4.1863507040e+01 -6.5925727772e+01 +1.0198666435e+02 1.2845246012e+02 0.0000000000e+00 0.0000e+00 -1.0000e+00
</event>
<event>
 6      1 +1.4834189e-01 1.02365000e+04 7.81653100e-03 6.92464000e-02
  1000022 -1    0    0    0    0 +0.0000000000e+00 +0.0000000000e+00 +4.4721471353e+01 1.0000100000e+04 1.0000000000e+04 0.0000e+00 -1.0000e+00
  1000022 -1    0    0    0    0 -0.0000000000e+00 -0.0000000000e+00 -4.4721471353e+01 1.0000100000e+04 1.0000000000e+04 0.0000e+00 -1.0000e+00
      -24  1    1    2    0    0 +1.7617760585e+03 +8.1258220322e+03 +4.6232293333e+03 9.5138562486e+03 7.9829010000e+01 0.0000e+00 -1.0000e+00
       24  1    1    2    0    0 -1.8414707199e+03 -6.8520157591e+03 -4.4808891980e+03 8.3920125745e+03 7.9829010000e+01 0.0000e+00 -1.0000e+00
       22  1    1    2    0    0 +5.1725652672e+02 -1.3573896583e+02 +4.8604216051e+02 7.2264539234e+02 0.0000000000e+00 0.0000e+00 1.0000e+00
       22  1    1    2    0    0 -4.3756186542e+02 -1.1380673073e+03 -6.2838229574e+02 1.3716857845e+03 0.0000000000e+00 0.0000e+00 -1.0000e+00
</event>
<event>
 6      1 +1.4834189e-01 9.15528000e+03 7.81653100e-03 6.99243400e-02
  1000022 -1    0    0    0    0 +0.0000000000e+00 +0.0000000000e+00 +4.4721471353e+01 1.0000100000e+04 1.0000000000e+04 0.0000e+00 -1.0000e+00
  1000022 -1    0    0    0    0 -0.0000000000e+00 -0.0000000000e+00 -4.4721471353e+01 1.0000100000e+04 1.0000000000e+04 0.0000e+00 -1.0000e+00
      -24  1    1    2    0    0 -1.5629936651e+03 +3.4293521696e+03 +8.6370076836e+03 9.4237826745e+03 7.9829010000e+01 0.0000e+00 -1.0000e+00
       24  1    1    2    0    0 +4.4068585040e+02 -1.5511998142e+03 -1.1738561360e+02 1.6188196118e+03 7.9829010000e+01 0.0000e+00 -1.0000e+00
       22  1    1    2    0    0 -1.3347897778e+01 +3.2902574269e+01 +7.3477728384e+01 8.1607121852e+01 0.0000000000e+00 0.0000e+00 1.0000e+00
       22  1    1    2    0    0 +1.1356557124e+03 -1.9110549297e+03 -8.5930997984e+03 8.8759905918e+03 0.0000000000e+00 0.0000e+00 -1.0000e+00
</event>
<event>
 6      1 +1.4834189e-01 1.00788200e+04 7.81653100e-03 6.93398800e-02
  1000022 -1    0    0    0    0 +0.0000000000e+00 +0.0000000000e+00 +4.4721471353e+01 1.0000100000e+04 1.0000000000e+04 0.0000e+00 -1.0000e+00
  1000022 -1    0    0    0    0 -0.0000000000e+00 -0.0000000000e+00 -4.4721471353e+01 1.0000100000e+04 1.0000000000e+04 0.0000e+00 -1.0000e+00
      -24  1    1    2    0    0 +8.7680833050e+02 -6.4347516606e+03 -5.4489526397e+03 8.4777520206e+03 7.9829010000e+01 0.0000e+00 1.0000e+00
       24  1    1    2    0    0 -9.0267794865e+02 +2.6748804235e+03 +3.2282634049e+03 4.2892738362e+03 7.9829010000e+01 0.0000e+00 -1.0000e+00
       22  1    1    2    0    0 -1.4059014591e+02 +4.8677614131e+03 +3.1311390452e+03 5.7895508016e+03 0.0000000000e+00 0.0000e+00 1.0000e+00
       22  1    1    2    0    0 +1.6645976405e+02 -1.1078901760e+03 -9.1044981049e+02 1.4436233417e+03 0.0000000000e+00 0.0000e+00 1.0000e+00
</event>
<event>
 6      1 +1.4834189e-01 1.00083700e+04 7.81653100e-03 6.93822100e-02
  1000022 -1    0    0    0    0 +0.0000000000e+00 +0.0000000000e+00 +4.4721471353e+01 1.0000100000e+04 1.0000000000e+04 0.0000e+00 1.0000e+00
  1000022 -1    0    0    0    0 -0.0000000000e+00 -0.0000000000e+00 -4.4721471353e+01 1.0000100000e+04 1.0000000000e+04 0.0000e+00 1.0000e+00
      -24  1    1    2    0    0 -3.4954149576e+03 -5.1610867636e+03 +7.8086903032e+03 9.9918346278e+03 7.9829010000e+01 0.0000e+00 -1.0000e+00
       24  1    1    2    0    0 +3.4335713220e+03 +5.1098036687e+03 -7.7722204321e+03 9.9153057780e+03 7.9829010000e+01 0.0000e+00 -1.0000e+00
       22  1    1    2    0    0 +4.2170492319e+01 +1.5853544227e+01 -2.0591614955e+01 4.9534835150e+01 0.0000000000e+00 0.0000e+00 1.0000e+00
       22  1    1    2    0    0 +1.9673143326e+01 +3.5429550718e+01 -1.5878256072e+01 4.3524759026e+01 0.0000000000e+00 0.0000e+00 -1.0000e+00
</event>
<event>
 6      1 +1.4834189e-01 1.00035400e+04 7.81653100e-03 6.93851100e-02
  1000022 -1    0    0    0    0 +0.0000000000e+00 +0.0000000000e+00 +4.4721471353e+01 1.0000100000e+04 1.0000000000e+04 0.0000e+00 -1.0000e+00
  1000022 -1    0    0    0    0 -0.0000000000e+00 -0.0000000000e+00 -4.4721471353e+01 1.0000100000e+04 1.0000000000e+04 0.0000e+00 -1.0000e+00
      -24  1    1    2    0    0 +3.9604098122e+03 -8.0873577133e+03 +4.2779644394e+03 9.9698321490e+03 7.9829010000e+01 0.0000e+00 1.0000e+00
       24  1    1    2    0    0 -7.9507302439e+02 +1.8169076883e+03 -8.0583763079e+02 2.1422048501e+03 7.9829010000e+01 0.0000e+00 1.0000e+00
       22  1    1    2    0    0 +7.4417738473e+00 -2.4830651447e+01 +6.8939677880e+00 2.6822901430e+01 0.0000000000e+00 0.0000e+00 -1.0000e+00
       22  1    1    2    0    0 -3.1727785617e+03 +6.2952806764e+03 -3.4790207764e+03 7.8613400994e+03 0.0000000000e+00 0.0000e+00 1.0000e+00
</event>
<event>
 6      1 +1.4834189e-01 1.00144500e+04 7.81653100e-03 6.93785300e-02
  1000022 -1    0    0    0    0 +0.0000000000e+00 +0.0000000000e+00 +4.4721471353e+01 1.0000100000e+04 1.0000000000e+04 0.0000e+00 -1.0000e+00
  1000022 -1    0    0    0    0 -0.0000000000e+00 -0.0000000000e+00 -4.4721471353e+01 1.0000100000e+04 1.0000000000e+04 0.0000e+00 -1.0000e+00
      -24  1    1    2    0    0 +1.5821673802e+03 -9.7048799482e+03 -7.9658265439e+02 9.8655392668e+03 7.9829010000e+01 0.0000e+00 1.0000e+00
       24  1    1    2    0    0 -1.5890730413e+03 +9.7667025613e+03 +7.1578742646e+02 9.9213081981e+03 7.9829010000e+01 0.0000e+00 1.0000e+00
       22  1    1    2    0    0 -9.5485631715e+00 +6.3683177515e+01 +2.3536579057e+00 6.4438046701e+01 0.0000000000e+00 0.0000e+00 -1.0000e+00
       22  1    1    2    0    0 +1.6454224266e+01 -1.2550579058e+02 +7.8441570025e+01 1.4891448846e+02 0.0000000000e+00 0.0000e+00 -1.0000e+00
</event>
<event>
 6      1 +1.4834189e-01 1.00021200e+04 7.81653100e-03 6.93859700e-02
  1000022 -1    0    0    0    0 +0.0000000000e+00 +0.0000000000e+00 +4.4721471353e+01 1.0000100000e+04 1.0000000000e+04 0.0000e+00 -1.0000e+00
  1000022 -1    0    0    0    0 -0.0000000000e+00 -0.0000000000e+00 -4.4721471353e+01 1.0000100000e+04 1.0000000000e+04 0.0000e+00 -1.0000e+00
      -24  1    1    2    0    0 -1.9797231850e+03 +1.5872949482e+03 +9.6341320803e+03 9.9630157460e+03 7.9829010000e+01 0.0000e+00 -1.0000e+00
       24  1    1    2    0    0 +5.2536871561e+02 -2.2373894877e+02 -2.2514422734e+03 2.3240990482e+03 7.9829010000e+01 0.0000e+00 0.0000e+00
       22  1    1    2    0    0 -1.2611586364e+01 -9.6030813333e+00 +3.1274181702e+01 3.5062026793e+01 0.0000000000e+00 0.0000e+00 1.0000e+00
       22  1    1    2    0    0 +1.4669660558e+03 -1.3539529181e+03 -7.4139639887e+03 7.6780231791e+03 0.0000000000e+00 0.0000e+00 -1.0000e+00
</event>
<event>
 6      1 +1.4834189e-01 1.07391800e+04 7.81653100e-03 6.89593300e-02
  1000022 -1    0    0    0    0 +0.0000000000e+00 +0.0000000000e+00 +4.4721471353e+01 1.0000100000e+04 1.0000000000e+04 0.0000e+00 1.0000e+00
  1000022 -1    0    0    0    0 -0.0000000000e+00 -0.0000000000e+00 -4.4721471353e+01 1.0000100000e+04 1.0000000000e+04 0.0000e+00 1.0000e+00
      -24  1    1    2    0    0 -3.2500118898e+03 +3.7752875044e+03 +2.7240830808e+03 5.6782369030e+03 7.9829010000e+01 0.0000e+00 -1.0000e+00
       24  1    1    2    0    0 +3.5733323130e+03 -7.5003127145e+03 -5.5289713022e+02 8.3267918517e+03 7.9829010000e+01 0.0000e+00 1.0000e+00
       22  1    1    2    0    0 +3.6340500470e+02 -8.5178715171e+02 -1.2316655437e+02 9.3422403596e+02 0.0000000000e+00 0.0000e+00 1.0000e+00
       22  1    1    2    0    0 -6.8672542788e+02 +4.5768123618e+03 -2.0480193962e+03 5.0609472093e+03 0.0000000000e+00 0.0000e+00 1.0000e+00
</event>
<event>
 6      1 +1.4834189e-01 1.00008700e+04 7.81653100e-03 6.93867300e-02
  1000022 -1    0    0    0    0 +0.0000000000e+00 +0.0000000000e+00 +4.4721471353e+01 1.0000100000e+04 1.0000000000e+04 0.0000e+00 -1.0000e+00
  1000022 -1    0    0    0    0 -0.0000000000e+00 -0.0000000000e+00 -4.4721471353e+01 1.0000100000e+04 1.0000000000e+04 0.0000e+00 -1.0000e+00
      -24  1    1    2    0    0 -9.2878960395e+03 +1.7853100015e+03 +3.2045075806e+03 9.9863700185e+03 7.9829010000e+01 0.0000e+00 -1.0000e+00
       24  1    1    2    0    0 +2.0258269205e+03 -3.6554347911e+02 -7.2852491966e+02 2.1851128063e+03 7.9829010000e+01 0.0000e+00 0.0000e+00
       22  1    1    2    0    0 -1.2142395822e+01 +1.7786898091e+00 +4.1641590225e+00 1.2959233546e+01 0.0000000000e+00 0.0000e+00 -1.0000e+00
       22  1    1    2    0    0 +7.2742115149e+03 -1.4215452122e+03 -2.4801468199e+03 7.8157579416e+03 0.0000000000e+00 0.0000e+00 -1.0000e+00
</event>
<event>
 6      1 +1.4834189e-01 1.00556200e+04 7.81653100e-03 6.93537800e-02
  1000022 -1    0    0    0    0 +0.0000000000e+00 +0.0000000000e+00 +4.4721471353e+01 1.0000100000e+04 1.0000000000e+04 0.0000e+00 -1.0000e+00
  1000022 -1    0    0    0    0 -0.0000000000e+00 -0.0000000000e+00 -4.4721471353e+01 1.0000100000e+04 1.0000000000e+04 0.0000e+00 -1.0000e+00
      -24  1    1    2    0    0 -6.8011832259e+03 +4.0829185926e+03 +4.3838914174e+03 9.0637295931e+03 7.9829010000e+01 0.0000e+00 1.0000e+00
       24  1    1    2    0    0 +7.3236114941e+03 -4.6209772940e+03 -4.6318414751e+03 9.8208474477e+03 7.9829010000e+01 0.0000e+00 1.0000e+00
       22  1    1    2    0    0 +1.2929711728e+02 +1.1019667714e+02 -1.6203716000e+02 2.3477029925e+02 0.0000000000e+00 0.0000e+00 -1.0000e+00
       22  1    1    2    0    0 -6.5172538549e+02 +4.2786202432e+02 +4.0998721768e+02 8.8085265999e+02 0.0000000000e+00 0.0000e+00 -1.0000e+00
</event>
<event>
 6      1 +1.4834189e-01 1.00180800e+04 7.81653100e-03 6.93763500e-02
  1000022 -1    0    0    0    0 +0.0000000000e+00 +0.0000000000e+00 +4.4721471353e+01 1.0000100000e+04 1.0000000000e+04 0.0000e+00 -1.0000e+00
  1000022 -1    0    0    0    0 -0.0000000000e+00 -0.0000000000e+00 -4.4721471353e+01 1.0000100000e+04 1.0000000000e+04 0.0000e+00 -1.0000e+00
      -24  1    1    2    0    0 +1.2327806830e+02 -7.5868077072e+01 -1.3791719777e+02 2.1528416458e+02 7.9829010000e+01 0.0000e+00 0.0000e+00
       24  1    1    2    0    0 -4.9116783471e+03 +3.6303066938e+03 +2.8387845021e+03 6.7356351591e+03 7.9829010000e+01 0.0000e+00 -1.0000e+00
       22  1    1    2    0    0 +6.9688964928e+03 -5.8658742145e+03 -3.5237750429e+03 9.7668310715e+03 0.0000000000e+00 0.0000e+00 -1.0000e+00
       22  1    1    2    0    0 -2.1804962140e+03 +2.3114355978e+03 +8.2290773860e+02 3.2824496048e+03 0.0000000000e+00 0.0000e+00 -1.0000e+00
</event>
<event>
 6      1 +1.4834189e-01 1.03492300e+04 7.81653100e-03 6.91806000e-02
  1000022 -1    0    0    0    0 +0.0000000000e+00 +0.0000000000e+00 +4.4721471353e+01 1.0000100000e+04 1.0000000000e+04 0.0000e+00 -1.0000e+00
  1000022 -1    0    0    0    0 -0.0000000000e+00 -0.0000000000e+00 -4.4721471353e+01 1.0000100000e+04 1.0000000000e+04 0.0000e+00 -1.0000e+00
      -24  1    1    2    0    0 +3.9964963863e+02 -1.5120437403e+03 -6.0198271123e+02 1.6777222541e+03 7.9829010000e+01 0.0000e+00 1.0000e+00
       24  1    1    2    0    0 +2.6866683495e+03 +8.3520116125e+03 -2.7519883219e+03 9.1953301839e+03 7.9829010000e+01 0.0000e+00 1.0000e+00
       22  1    1    2    0    0 +1.3325367160e+02 +4.0845378342e+02 -1.5171015056e+02 4.5563911593e+02 0.0000000000e+00 0.0000e+00 1.0000e+00
       22  1    1    2    0    0 -3.2195716597e+03 -7.2484216556e+03 +3.5056811837e+03 8.6715084461e+03 0.0000000000e+00 0.0000e+00 1.0000e+00
</event>
<event>
 6      1 +1.4834189e-01 1.00024300e+04 7.81653100e-03 6.93857900e-02
  1000022 -1    0    0    0    0 +0.0000000000e+00 +0.0000000000e+00 +4.4721471353e+01 1.0000100000e+04 1.0000000000e+04 0.0000e+00 1.0000e+00
  1000022 -1    0    0    0    0 -0.0000000000e+00 -0.0000000000e+00 -4.4721471353e+01 1.0000100000e+04 1.0000000000e+04 0.0000e+00 1.0000e+00
      -24  1    1    2    0    0 +3.7789363691e+03 -1.9107686870e+03 -9.0072453676e+03 9.9533029111e+03 7.9829010000e+01 0.0000e+00 -1.0000e+00
       24  1    1    2    0    0 -3.2820534379e+03 +1.7393438374e+03 +7.4636916435e+03 8.3372811740e+03 7.9829010000e+01 0.0000e+00 -1.0000e+00
       22  1    1    2    0    0 -5.0244914847e+02 +2.0285161876e+02 +1.5745191745e+03 1.6651470076e+03 0.0000000000e+00 0.0000e+00 -1.0000e+00
       22  1    1    2    0    0 +5.5662172758e+00 -3.1426769139e+01 -3.0965450502e+01 4.4468907318e+01 0.0000000000e+00 0.0000e+00 1.0000e+00
</event>
<event>
 6      1 +1.4834189e-01 1.00555900e+04 7.81653100e-03 6.93538000e-02
  1000022 -1    0    0    0    0 +0.0000000000e+00 +0.0000000000e+00 +4.4721471353e+01 1.0000100000e+04 1.0000000000e+04 0.0000e+00 1.0000e+00
  1000022 -1    0    0    0    0 -0.0000000000e+00 -0.0000000000e+00 -4.4721471353e+01 1.0000100000e+04 1.0000000000e+04 0.0000e+00 1.0000e+00
      -24  1    1    2    0    0 -7.6288312807e+03 -5.3102933941e+03 -3.5342023580e+03 9.9446086710e+03 7.9829010000e+01 0.0000e+00 1.0000e+00
       24  1    1    2    0    0 +7.3229764735e+03 +4.9022537164e+03 +3.2755318655e+03 9.4017848095e+03 7.9829010000e+01 0.0000e+00 1.0000e+00
       22  1    1    2    0    0 -3.6541811855e+01 +1.9222269748e+02 +8.0061690488e+01 2.1141131409e+02 0.0000000000e+00 0.0000e+00 1.0000e+00
       22  1    1    2    0    0 +3.4239661897e+02 +2.1581698026e+02 +1.7860880194e+02 4.4239520542e+02 0.0000000000e+00 0.0000e+00 1.0000e+00
</event>
<event>
 6      1 +1.4834189e-01 1.00218300e+04 7.81653100e-03 6.93740900e-02
  1000022 -1    0    0    0    0 +0.0000000000e+00 +0.0000000000e+00 +4.4721471353e+01 1.0000100000e+04 1.0000000000e+04 0.0000e+00 1.0000e+00
  1000022 -1    0    0    0    0 -0.0000000000e+00 -0.0000000000e+00 -4.4721471353e+01 1.0000100000e+04 1.0000000000e+04 0.0000e+00 1.0000e+00
      -24  1    1    2    0    0 -1.7912817595e+02 -3.7967403136e+03 -9.2257301234e+03 9.9783662437e+03 7.9829010000e+01 0.0000e+00 1.0000e+00
       24  1    1    2    0    0 -1.6319749962e+02 +3.1779615998e+03 +7.6731356724e+03 8.3071930923e+03 7.9829010000e+01 0.0000e+00 1.0000e+00
       22  1    1    2    0    0 +2.2362677946e+01 +2.4317911109e+01 +1.6902674682e+01 3.7109979480e+01 0.0000000000e+00 0.0000e+00 -1.0000e+00
       22  1    1    2    0    0 +3.1996299763e+02 +5.9446080272e+02 +1.5356917763e+03 1.6775306845e+03 0.0000000000e+00 0.0000e+00 1.0000e+00
</event>
<event>
 6      1 +1.4834189e-01 1.01124400e+04 7.81653100e-03 6.93198100e-02
  1000022 -1    0    0    0    0 +0.0000000000e+00 +0.0000000000e+00 +4.4721471353e+01 1.0000100000e+04 1.0000000000e+04 0.0000e+00 1.0000e+00
  1000022 -1    0    0    0    0 -0.0000000000e+00 -0.0000000000e+00 -4.4721471353e+01 1.0000100000e+04 1.0000000000e+04 0.0000e+00 1.0000e+00
      -24  1    1    2    0    0 +6.9797587560e+03 +5.3265335641e+03 +4.5467007734e+03 9.8877627750e+03 7.9829010000e+01 0.0000e+00 1.0000e+00
       24  1    1    2    0    0 -2.3651167579e+03 -2.1615452979e+03 -2.2694903889e+03 3.9272146172e+03 7.9829010000e+01 0.0000e+00 0.0000e+00
       22  1    1    2    0    0 -2.9644685648e+03 -1.7110924646e+03 -7.3991757260e+02 3.5019122360e+03 0.0000000000e+00 0.0000e+00 1.0000e+00
       22  1    1    2    0    0 -1.6501734334e+03 -1.4538958016e+03 -1.5372928118e+03 2.6833103718e+03 0.0000000000e+00 0.0000e+00 1.0000e+00
</event>
<event>
 6      1 +1.4834189e-01 1.00265600e+04 7.81653100e-03 6.93712400e-02
  1000022 -1    0    0    0    0 +0.0000000000e+00 +0.0000000000e+00 +4.4721471353e+01 1.0000100000e+04 1.0000000000e+04 0.0000e+00 -1.0000e+00
  1000022 -1    0    0    0    0 -0.0000000000e+00 -0.0000000000e+00 -4.4721471353e+01 1.0000100000e+04 1.0000000000e+04 0.0000e+00 -1.0000e+00
      -24  1    1    2    0    0 -1.8482089180e+03 -9.3403802319e+03 +2.9679342938e+03 9.9736445557e+03 7.9829010000e+01 0.0000e+00 -1.0000e+00
       24  1    1    2    0    0 +8.1816393812e+02 +3.3662906979e+03 -1.1599469613e+03 3.6541968908e+03 7.9829010000e+01 0.0000e+00 -1.0000e+00
       22  1    1    2    0    0 +1.1705175889e+02 +7.3821951128e+01 -1.9519344909e+01 1.3975621472e+02 0.0000000000e+00 0.0000e+00 -1.0000e+00
       22  1    1    2    0    0 +9.1299322097e+02 +5.9002675828e+03 -1.7884679876e+03 6.2326023388e+03 0.0000000000e+00 0.0000e+00 -1.0000e+00
</event>
<event>
 6      1 +1.4834189e-01 8.15708800e+03 7.81653100e-03 7.06397500e-02
  1000022 -1    0    0    0    0 +0.0000000000e+00 +0.0000000000e+00 +4.4721471353e+01 1.0000100000e+04 1.0000000000e+04 0.0000e+00 1.0000e+00
  1000022 -1    0    0    0    0 -0.0000000000e+00 -0.0000000000e+00 -4.4721471353e+01 1.0000100000e+04 1.0000000000e+04 0.0000e+00 1.0000e+00
      -24  1    1    2    0    0 -2.6157021101e+03 -2.0579479460e+03 -3.9990948547e+02 3.3531101301e+03 7.9829010000e+01 0.0000e+00 -1.0000e+00
       24  1    1    2    0    0 +2.6506268992e+02 +4.2335612883e+03 +8.3803013215e+01 4.2434296303e+03 7.9829010000e+01 0.0000e+00 1.0000e+00
       22  1    1    2    0    0 +4.4021623753e+02 +4.9647021864e+03 -2.5076513889e+02 4.9904850757e+03 0.0000000000e+00 0.0000e+00 1.0000e+00
       22  1    1    2    0    0 +1.9104231827e+03 -7.1403155287e+03 +5.6687161115e+02 7.4131751639e+03 0.0000000000e+00 0.0000e+00 1.0000e+00
</event>
<event>
 6      1 +1.4834189e-01 1.00006100e+04 7.81653100e-03 6.93868900e-02
  1000022 -1    0    0    0    0 +0.0000000000e+00 +0.0000000000e+00 +4.4721471353e+01 1.0000100000e+04 1.0000000000e+04 0.0000e+00 -1.0000e+00
  1000022 -1    0    0    0    0 -0.0000000000e+00 -0.0000000000e+00 -4.4721471353e+01 1.0000100000e+04 1.0000000000e+04 0.0000e+00 -1.0000e+00
      -24  1    1    2    0    0 +1.4052847355e+03 -1.0967203720e+03 -1.3428049688e+03 2.2331857552e+03 7.9829010000e+01 0.0000e+00 0.0000e+00
       24  1    1    2    0    0 -6.1050663185e+03 +4.6639484779e+03 +6.3659893407e+03 9.9777975082e+03 7.9829010000e+01 0.0000e+00 -1.0000e+00
       22  1    1    2    0    0 +4.7120674020e+03 -3.5845955499e+03 -5.0279174579e+03 7.7674228944e+03 0.0000000000e+00 0.0000e+00 -1.0000e+00
       22  1    1    2    0    0 -1.2285818902e+01 +1.7367443944e+01 +4.7330860718e+00 2.1793842227e+01 0.0000000000e+00 0.0000e+00 -1.0000e+00
</event>
<event>
 6      1 +1.4834189e-01 1.00238300e+04 7.81653100e-03 6.93728800e-02
  1000022 -1    0    0    0    0 +0.0000000000e+00 +0.0000000000e+00 +4.4721471353e+01 1.0000100000e+04 1.0000000000e+04 0.0000e+00 -1.0000e+00
  1000022 -1    0    0    0    0 -0.0000000000e+00 -0.0000000000e+00 -4.4721471353e+01 1.0000100000e+04 1.0000000000e+04 0.0000e+00 -1.0000e+00
      -24  1    1    2    0    0 +5.6467520462e+02 +2.9378915660e+02 -1.3480748204e+03 1.4929328677e+03 7.9829010000e+01 0.0000e+00 -1.0000e+00
       24  1    1    2    0    0 -5.4663108215e+03 -1.0954246899e+03 +8.2729112533e+03 9.9763692055e+03 7.9829010000e+01 0.0000e+00 -1.0000e+00
       22  1    1    2    0    0 +1.0041699921e+02 +6.6216934894e+01 -2.3137250843e+02 2.6077096053e+02 0.0000000000e+00 0.0000e+00 1.0000e+00
       22  1    1    2    0    0 +4.8012186177e+03 +7.3541859838e+02 -6.6934639245e+03 8.2701269662e+03 0.0000000000e+00 0.0000e+00 -1.0000e+00
</event>
<event>
 6      1 +1.4834189e-01 1.00002400e+04 7.81653100e-03 6.93871100e-02
  1000022 -1    0    0    0    0 +0.0000000000e+00 +0.0000000000e+00 +4.4721471353e+01 1.0000100000e+04 1.0000000000e+04 0.0000e+00 1.0000e+00
  1000022 -1    0    0    0    0 -0.0000000000e+00 -0.0000000000e+00 -4.4721471353e+01 1.0000100000e+04 1.0000000000e+04 0.0000e+00 1.0000e+00
      -24  1    1    2    0    0 -8.5080617974e+03 -2.0037173603e+03 +4.8171802150e+03 9.9806611355e+03 7.9829010000e+01 0.0000e+00 1.0000e+00
       24  1    1    2    0    0 +7.8334551502e+03 +1.8496315923e+03 -4.4785128138e+03 9.2112760415e+03 7.9829010000e+01 0.0000e+00 1.0000e+00
       22  1    1    2    0    0 -1.8680345676e+01 -2.4485391409e-01 +4.8420452476e+00 1.9299240146e+01 0.0000000000e+00 0.0000e+00 1.0000e+00
       22  1    1    2    0    0 +6.9328699280e+02 +1.5433062191e+02 -3.4350944648e+02 7.8896358285e+02 0.0000000000e+00 0.0000e+00 1.0000e+00
</event>
<event>
 6      1 +1.4834189e-01 9.74710800e+03 7.81653100e-03 6.95422700e-02
  1000022 -1    0    0    0    0 +0.0000000000e+00 +0.0000000000e+00 +4.4721471353e+01 1.0000100000e+04 1.0000000000e+04 0.0000e+00 -1.0000e+00
  1000022 -1    0    0    0    0 -0.0000000000e+00 -0.0000000000e+00 -4.4721471353e+01 1.0000100000e+04 1.0000000000e+04 0.0000e+00 -1.0000e+00
      -24  1    1    2    0    0 -4.6313631749e+01 +1.5125697546e+02 -1.9832043507e+01 1.7829639901e+02 7.9829010000e+01 0.0000e+00 1.0000e+00
       24  1    1    2    0    0 -7.0290856011e+03 +3.7512293236e+03 -5.7445137107e+03 9.8227071762e+03 7.9829010000e+01 0.0000e+00 1.0000e+00
       22  1    1    2    0    0 +7.0342774513e+03 -3.7527662498e+03 +5.4774836489e+03 9.6730109537e+03 0.0000000000e+00 0.0000e+00 1.0000e+00
       22  1    1    2    0    0 +4.1121781582e+01 -1.4972004930e+02 +2.8686210528e+02 3.2618547106e+02 0.0000000000e+00 0.0000e+00 1.0000e+00
</event>
<event>
 6      1 +1.4834189e-01 1.00001800e+04 7.81653100e-03 6.93871400e-02
  1000022 -1    0    0    0    0 +0.0000000000e+00 +0.0000000000e+00 +4.4721471353e+01 1.0000100000e+04 1.0000000000e+04 0.0000e+00 -1.0000e+00
  1000022 -1    0    0    0    0 -0.0000000000e+00 -0.0000000000e+00 -4.4721471353e+01 1.0000100000e+04 1.0000000000e+04 0.0000e+00 -1.0000e+00
      -24  1    1    2    0    0 -6.1365561268e+03 +7.3371305244e+03 +2.4000779910e+03 9.8619243793e+03 7.9829010000e+01 0.0000e+00 1.0000e+00
       24  1    1    2    0    0 +6.1610629804e+03 -7.3703205356e+03 -2.4065280423e+03 9.9034373697e+03 7.9829010000e+01 0.0000e+00 1.0000e+00
       22  1    1    2    0    0 -8.3085890422e+01 +1.0704786578e+02 +2.7446823519e+01 1.3826004078e+02 0.0000000000e+00 0.0000e+00 1.0000e+00
       22  1    1    2    0    0 +5.8579036841e+01 -7.3857854607e+01 -2.0996772275e+01 9.6578210226e+01 0.0000000000e+00 0.0000e+00 -1.0000e+00
</event>
<event>
 6      1 +1.4834189e-01 1.00008600e+04 7.81653100e-03 6.93867300e-02
  1000022 -1    0    0    0    0 +0.0000000000e+00 +0.0000000000e+00 +4.4721471353e+01 1.0000100000e+04 1.0000000000e+04 0.0000e+00 -1.0000e+00
  1000022 -1    0    0    0    0 -0.0000000000e+00 -0.0000000000e+00 -4.4721471353e+01 1.0000100000e+04 1.0000000000e+04 0.0000e+00 -1.0000e+00
      -24  1    1    2    0    0 -7.0830336719e+03 -6.6346449482e+03 +2.2627313628e+03 9.9656512821e+03 7.9829010000e+01 0.0000e+00 1.0000e+00
       24  1    1    2    0    0 +7.1069916588e+03 +6.6578783429e+03 -2.2679664370e+03 9.9993359229e+03 7.9829010000e+01 0.0000e+00 1.0000e+00
       22  1    1    2    0    0 -1.8270941346e+01 -1.4325543140e+01 +7.5108647519e+00 2.4402081330e+01 0.0000000000e+00 0.0000e+00 1.0000e+00
       22  1    1    2    0    0 -5.6870455929e+00 -8.9078516134e+00 -2.2757905763e+00 1.0810713699e+01 0.0000000000e+00 0.0000e+00 -1.0000e+00
</event>
<event>
 6      1 +1.4834189e-01 1.02901200e+04 7.81653100e-03 6.92150000e-02
  1000022 -1    0    0    0    0 +0.0000000000e+00 +0.0000000000e+00 +4.4721471353e+01 1.0000100000e+04 1.0000000000e+04 0.0000e+00 1.0000e+00
  1000022 -1    0    0    0    0 -0.0000000000e+00 -0.0000000000e+00 -4.4721471353e+01 1.0000100000e+04 1.0000000000e+04 0.0000e+00 1.0000e+00
      -24  1    1    2    0    0 +6.6890699642e+03 -2.3486223186e+03 +4.8419410191e+03 8.5854789782e+03 7.9829010000e+01 0.0000e+00 1.0000e+00
       24  1    1    2    0    0 -7.8794988432e+03 +3.1028326795e+03 -4.2156222759e+03 9.4600167283e+03 7.9829010000e+01 0.0000e+00 1.0000e+00
       22  1    1    2    0    0 -1.5778744865e+02 +1.5553240931e+02 -1.1596031255e+02 2.5006799752e+02 0.0000000000e+00 0.0000e+00 1.0000e+00
       22  1    1    2    0    0 +1.3482163276e+03 -9.0974277013e+02 -5.1035843067e+02 1.7046362960e+03 0.0000000000e+00 0.0000e+00 1.0000e+00
</event>
<event>
 6      1 +1.4834189e-01 1.00032400e+04 7.81653100e-03 6.93853000e-02
  1000022 -1    0    0    0    0 +0.0000000000e+00 +0.0000000000e+00 +4.4721471353e+01 1.0000100000e+04 1.0000000000e+04 0.0000e+00 -1.0000e+00
  1000022 -1    0    0    0    0 -0.0000000000e+00 -0.0000000000e+00 -4.4721471353e+01 1.0000100000e+04 1.0000000000e+04 0.0000e+00 -1.0000e+00
      -24  1    1    2    0    0 -5.0765441125e+03 -2.8076460108e+03 +8.0951416040e+03 9.9595113589e+03 7.9829010000e+01 0.0000e+00 1.0000e+00
       24  1    1    2    0    0 +4.9607449740e+03 +2.7426769208e+03 -7.9365454346e+03 9.7532760392e+03 7.9829010000e+01 0.0000e+00 1.0000e+00
       22  1    1    2    0    0 +1.2678190040e+02 +9.9839644580e+01 -1.8259107145e+02 2.4368238400e+02 0.0000000000e+00 0.0000e+00 -1.0000e+00
       22  1    1    2    0    0 -1.0982761951e+01 -3.4870554596e+01 +2.3994902053e+01 4.3730217955e+01 0.0000000000e+00 0.0000e+00 1.0000e+00
</event>
<event>
 6      1 +1.4834189e-01 1.03703200e+04 7.81653100e-03 6.91683800e-02
  1000022 -1    0    0    0    0 +0.0000000000e+00 +0.0000000000e+00 +4.4721471353e+01 1.0000100000e+04 1.0000000000e+04 0.0000e+00 -1.0000e+00
  1000022 -1    0    0    0    0 -0.0000000000e+00 -0.0000000000e+00 -4.4721471353e+01 1.0000100000e+04 1.0000000000e+04 0.0000e+00 -1.0000e+00
      -24  1    1    2    0    0 -2.9645366140e+03 -2.4589905349e+03 +8.4694643573e+03 9.3044780056e+03 7.9829010000e+01 0.0000e+00 1.0000e+00
       24  1    1    2    0    0 +4.3302327428e+02 +5.4619495696e+02 -1.0547834936e+03 1.2667987119e+03 7.9829010000e+01 0.0000e+00 -1.0000e+00
       22  1    1    2    0    0 -3.7003433447e+02 +9.2971221428e+02 +3.6706815112e+02 1.0658467233e+03 0.0000000000e+00 0.0000e+00 -1.0000e+00
       22  1    1    2    0    0 +2.9015476741e+03 +9.8308336367e+02 -7.7817490148e+03 8.3630765592e+03 0.0000000000e+00 0.0000e+00 1.0000e+00
</event>
<event>
 6      1 +1.4834189e-01 1.00050500e+04 7.81653100e-03 6.93842100e-02
  1000022 -1    0    0    0    0 +0.0000000000e+00 +0.0000000000e+00 +4.4721471353e+01 1.0000100000e+04 1.0000000000e+04 0.0000e+00 -1.0000e+00
  1000022 -1    0    0    0    0 -0.0000000000e+00 -0.0000000000e+00 -4.4721471353e+01 1.0000100000e+04 1.0000000000e+04 0.0000e+00 -1.0000e+00
      -24  1    1    2    0    0 -5.7533870855e+03 -6.2407225437e+03 +5.2626403956e+03 9.9874840389e+03 7.9829010000e+01 0.0000e+00 1.0000e+00
       24  1    1    2    0    0 +5.7394149620e+03 +6.2053277720e+03 -5.2329937735e+03 9.9417087751e+03 7.9829010000e+01 0.0000e+00 1.0000e+00
       22  1    1    2    0    0 +3.1296149903e+01 +3.2886412647e+01 -2.8198557232e+01 5.3442714803e+01 0.0000000000e+00 0.0000e+00 1.0000e+00
       22  1    1    2    0    0 -1.7324026391e+01 +2.5083590546e+00 -1.4480648993e+00 1.7564471170e+01 0.0000000000e+00 0.0000e+00 -1.0000e+00
</event>
<event>
 6      1 +1.4834189e-01 1.00073500e+04 7.81653100e-03 6.93828200e-02
  1000022 -1    0    0    0    0 +0.0000000000e+00 +0.0000000000e+00 +4.4721471353e+01 1.0000100000e+04 1.0000000000e+04 0.0000e+00 -1.0000e+00
  1000022 -1    0    0    0    0 -0.0000000000e+00 -0.0000000000e+00 -4.4721471353e+01 1.0000100000e+04 1.0000000000e+04 0.0000e+00 -1.0000e+00
      -24  1    1    2    0    0 -6.3412890254e+03 -7.4916897448e+03 +1.6653287580e+03 9.9557548323e+03 7.9829010000e+01 0.0000e+00 1.0000e+00
       24  1    1    2    0    0 +1.8110206816e+03 +2.0581434136e+03 -2.3380446038e+02 2.7525964864e+03 7.9829010000e+01 0.0000e+00 -1.0000e+00
       22  1    1    2    0    0 +4.5534396215e+03 +5.4621129863e+03 -1.4363116789e+03 7.2547558126e+03 0.0000000000e+00 0.0000e+00 1.0000e+00
       22  1    1    2    0    0 -2.3171277723e+01 -2.8566655057e+01 +4.7873812537e+00 3.7092868745e+01 0.0000000000e+00 0.0000e+00 -1.0000e+00
</event>
<event>
 6      1 +1.4834189e-01 1.01825100e+04 7.81653100e-03 6.92782200e-02
  1000022 -1    0    0    0    0 +0.0000000000e+00 +0.0000000000e+00 +4.4721471353e+01 1.0000100000e+04 1.0000000000e+04 0.0000e+00 -1.0000e+00
  1000022 -1    0    0    0    0 -0.0000000000e+00 -0.0000000000e+00 -4.4721471353e+01 1.0000100000e+04 1.0000000000e+04 0.0000e+00 -1.0000e+00
      -24  1    1    2    0    0 -9.6416551757e+03 -1.5359328389e+03 +1.0296037802e+03 9.8176912167e+03 7.9829010000e+01 0.0000e+00 1.0000e+00
       24  1    1    2    0    0 +5.9841415347e+03 -3.1491639249e+02 -7.2168209927e+02 6.0362504889e+03 7.9829010000e+01 0.0000e+00 1.0000e+00
       22  1    1    2    0    0 +8.9079431131e+01 -1.9542378697e+01 -6.1149901364e+01 1.0980145742e+02 0.0000000000e+00 0.0000e+00 1.0000e+00
       22  1    1    2    0    0 +3.5684342098e+03 +1.8703916101e+03 -2.4677177958e+02 4.0364568369e+03 0.0000000000e+00 0.0000e+00 -1.0000e+00
</event>
<event>
 6      1 +1.4834189e-01 1.00033900e+04 7.81653100e-03 6.93852100e-02
  1000022 -1    0    0    0    0 +0.0000000000e+00 +0.0000000000e+00 +4.4721471353e+01 1.0000100000e+04 1.0000000000e+04 0.0000e+00 1.0000e+00
  1000022 -1    0    0    0    0 -0.0000000000e+00 -0.0000000000e+00 -4.4721471353e+01 1.0000100000e+04 1.0000000000e+04 0.0000e+00 1.0000e+00
      -24  1    1    2    0    0 +2.5034860437e+03 +6.8239585587e+03 -3.8499355947e+03 8.2257054127e+03 7.9829010000e+01 0.0000e+00 -1.0000e+00
       24  1    1    2    0    0 -6.3304445377e+00 -1.4255413908e+02 +8.1044658158e+01 1.8249017659e+02 7.9829010000e+01 0.0000e+00 1.0000e+00
       22  1    1    2    0    0 +5.4824100296e+02 +1.2605422261e+03 -1.1272213043e+03 1.7776846655e+03 0.0000000000e+00 0.0000e+00 -1.0000e+00
       22  1    1    2    0    0 -3.0453966021e+03 -7.9419466457e+03 +4.8961122408e+03 9.8143197453e+03 0.0000000000e+00 0.0000e+00 -1.0000e+00
</event>
<event>
 6      1 +1.4834189e-01 1.00021200e+04 7.81653100e-03 6.93859800e-02
  1000022 -1    0    0    0    0 +0.0000000000e+00 +0.0000000000e+00 +4.4721471353e+01 1.0000100000e+04 1.0000000000e+04 0.0000e+00 1.0000e+00
  1000022 -1    0    0    0    0 -0.0000000000e+00 -0.0000000000e+00 -4.4721471353e+01 1.0000100000e+04 1.0000000000e+04 0.0000e+00 1.0000e+00
      -24  1    1    2    0    0 -5.9376800607e+03 +2.3062944353e+03 +7.4700737850e+03 9.8175054648e+03 7.9829010000e+01 0.0000e+00 1.0000e+00
       24  1    1    2    0    0 +6.0080662927e+03 -2.3528204084e+03 -7.6020129456e+03 9.9714391112e+03 7.9829010000e+01 0.0000e+00 1.0000e+00
       22  1    1    2    0    0 -1.5230610366e+00 -2.3593747560e+01 -1.9550092775e+01 3.0678832546e+01 0.0000000000e+00 0.0000e+00 1.0000e+00
       22  1    1    2    0    0 -6.8863170947e+01 +7.0119720641e+01 +1.5148925332e+02 1.8057659153e+02 0.0000000000e+00 0.0000e+00 1.0000e+00
</event>
<event>
 6      1 +1.4834189e-01 1.00060900e+04 7.81653100e-03 6.93835800e-02
  1000022 -1    0    0    0    0 +0.0000000000e+00 +0.0000000000e+00 +4.4721471353e+01 1.0000100000e+04 1.0000000000e+04 0.0000e+00 -1.0000e+00
  1000022 -1    0    0    0    0 -0.0000000000e+00 -0.0000000000e+00 -4.4721471353e+01 1.0000100000e+04 1.0000000000e+04 0.0000e+00 -1.0000e+00
      -24  1    1    2    0    0 -8.8041122094e+03 -4.4979828328e+03 +1.2019359563e+03 9.9596819263e+03 7.9829010000e+01 0.0000e+00 -1.0000e+00
       24  1    1    2    0    0 +8.8249906659e+03 +4.4732591852e+03 -1.2083986231e+03 9.9678035642e+03 7.9829010000e+01 0.0000e+00 -1.0000e+00
       22  1    1    2    0    0 +2.3434827529e+01 +1.1853599404e+01 +1.5182462215e+00 2.6305969507e+01 0.0000000000e+00 0.0000e+00 -1.0000e+00
       22  1    1    2    0    0 -4.4313284072e+01 +1.2870048142e+01 +4.9444205571e+00 4.6408539937e+01 0.0000000000e+00 0.0000e+00 1.0000e+00
</event>
<event>
 6      1 +1.4834189e-01 1.09471300e+04 7.81653100e-03 6.88451600e-02
  1000022 -1    0    0    0    0 +0.0000000000e+00 +0.0000000000e+00 +4.4721471353e+01 1.0000100000e+04 1.0000000000e+04 0.0000e+00 1.0000e+00
  1000022 -1    0    0    0    0 -0.0000000000e+00 -0.0000000000e+00 -4.4721471353e+01 1.0000100000e+04 1.0000000000e+04 0.0000e+00 1.0000e+00
      -24  1    1    2    0    0 +5.1672697207e+03 -5.3633557168e+03 +5.1463944775e+03 9.0530663148e+03 7.9829010000e+01 0.0000e+00 1.0000e+00
       24  1    1    2    0    0 -6.1938417259e+03 +3.7885378974e+03 -5.3230971661e+03 9.0032455723e+03 7.9829010000e+01 0.0000e+00 1.0000e+00
       22  1    1    2    0    0 +1.0644301183e+03 +1.5536955446e+03 +2.0125615669e+02 1.8940658285e+03 0.0000000000e+00 0.0000e+00 1.0000e+00
       22  1    1    2    0    0 -3.7858113126e+01 +2.1122274873e+01 -2.4553468096e+01 4.9822284380e+01 0.0000000000e+00 0.0000e+00 -1.0000e+00
</event>
<event>
 6      1 +1.4834189e-01 1.03356800e+04 7.81653100e-03 6.91884700e-02
  1000022 -1    0    0    0    0 +0.0000000000e+00 +0.0000000000e+00 +4.4721471353e+01 1.0000100000e+04 1.0000000000e+04 0.0000e+00 1.0000e+00
  1000022 -1    0    0    0    0 -0.0000000000e+00 -0.0000000000e+00 -4.4721471353e+01 1.0000100000e+04 1.0000000000e+04 0.0000e+00 1.0000e+00
      -24  1    1    2    0    0 -2.3262798136e+03 +1.0250279516e+03 +9.3238565060e+03 9.6645192787e+03 7.9829010000e+01 0.0000e+00 1.0000e+00
       24  1    1    2    0    0 +2.9206872395e+02 -8.9197381507e+02 -2.4573329880e+03 2.6316875786e+03 7.9829010000e+01 0.0000e+00 1.0000e+00
       22  1    1    2    0    0 +7.2014551235e+02 -1.2603472872e+03 -1.6007666486e+03 2.1609115453e+03 0.0000000000e+00 0.0000e+00 1.0000e+00
       22  1    1    2    0    0 +1.3140655773e+03 +1.1272931507e+03 -5.2657568694e+03 5.5430815975e+03 0.0000000000e+00 0.0000e+00 1.0000e+00
</event>
<event>
 6      1 +1.4834189e-01 1.01920200e+04 7.81653100e-03 6.92726000e-02
  1000022 -1    0    0    0    0 +0.0000000000e+00 +0.0000000000e+00 +4.4721471353e+01 1.0000100000e+04 1.0000000000e+04 0.0000e+00 -1.0000e+00
  1000022 -1    0    0    0    0 -0.0000000000e+00 -0.0000000000e+00 -4.4721471353e+01 1.0000100000e+04 1.0000000000e+04 0.0000e+00 -1.0000e+00
      -24  1    1    2    0    0 +4.7070828269e+03 +2.9820249484e+03 +7.9278732431e+03 9.6905442759e+03 7.9829010000e+01 0.0000e+00 1.0000e+00
       24  1    1    2    0    0 -1.3643891230e+03 -9.7918042265e+02 -1.7813586861e+03 2.4494822756e+03 7.9829010000e+01 0.0000e+00 1.0000e+00
       22  1    1    2    0    0 -2.9316606881e+03 -2.0551932684e+03 -6.4289910367e+03 7.3586941444e+03 0.0000000000e+00 0.0000e+00 1.0000e+00
       22  1    1    2    0    0 -4.1103301587e+02 +5.2348742602e+01 +2.8247647964e+02 5.0147930420e+02 0.0000000000e+00 0.0000e+00 1.0000e+00
</event>
<event>
 6      1 +1.4834189e-01 6.48305700e+03 7.81653100e-03 7.21082600e-02
  1000022 -1    0    0    0    0 +0.0000000000e+00 +0.0000000000e+00 +4.4721471353e+01 1.0000100000e+04 1.0000000000e+04 0.0000e+00 -1.0000e+00
  1000022 -1    0    0    0    0 -0.0000000000e+00 -0.0000000000e+00 -4.4721471353e+01 1.0000100000e+04 1.0000000000e+04 0.0000e+00 -1.0000e+00
      -24  1    1    2    0    0 -4.2605273155e+03 -8.7654434443e+01 +4.0480364188e+03 5.8781585402e+03 7.9829010000e+01 0.0000e+00 -1.0000e+00
       24  1    1    2    0    0 +2.0371394608e+03 -1.9299620122e+03 -3.9821944386e+03 4.8722618740e+03 7.9829010000e+01 0.0000e+00 -1.0000e+00
       22  1    1    2    0    0 +6.7588813292e+02 -1.3084162020e+03 -3.7633571230e+03 4.0412417103e+03 0.0000000000e+00 0.0000e+00 -1.0000e+00
       22  1    1    2    0    0 +1.5474997218e+03 +3.3260326486e+03 +3.6975151428e+03 5.2085378755e+03 0.0000000000e+00 0.0000e+00 -1.0000e+00
</event>
<event>
 6      1 +1.4834189e-01 1.00835900e+04 7.81653100e-03 6.93370300e-02
  1000022 -1    0    0    0    0 +0.0000000000e+00 +0.0000000000e+00 +4.4721471353e+01 1.0000100000e+04 1.0000000000e+04 0.0000e+00 1.0000e+00
  1000022 -1    0    0    0    0 -0.0000000000e+00 -0.0000000000e+00 -4.4721471353e+01 1.0000100000e+04 1.0000000000e+04 0.0000e+00 1.0000e+00
      -24  1    1    2    0    0 +2.3584975158e+03 +8.5444852025e+03 -2.9399268336e+03 9.3391798551e+03 7.9829010000e+01 0.0000e+00 1.0000e+00
       24  1    1    2    0    0 -1.7473583945e+03 -7.7529945446e+03 +2.0089316550e+03 8.1978268360e+03 7.9829010000e+01 0.0000e+00 1.0000e+00
       22  1    1    2    0    0 -7.7153897744e+02 -1.3176720930e+03 +1.1065957719e+03 1.8857588236e+03 0.0000000000e+00 0.0000e+00 1.0000e+00
       22  1    1    2    0    0 +1.6039985621e+02 +5.2618143508e+02 -1.7560059338e+02 5.7743448536e+02 0.0000000000e+00 0.0000e+00 1.0000e+00
</event>
<event>
 6      1 +1.4834189e-01 1.00038800e+04 7.81653100e-03 6.93849100e-02
  1000022 -1    0    0    0    0 +0.0000000000e+00 +0.0000000000e+00 +4.4721471353e+01 1.0000100000e+04 1.0000000000e+04 0.0000e+00 1.0000e+00
  1000022 -1    0    0    0    0 -0.0000000000e+00 -0.0000000000e+00 -4.4721471353e+01 1.0000100000e+04 1.0000000000e+04 0.0000e+00 1.0000e+00
      -24  1    1    2    0    0 +9.7415078920e+02 -6.5259942477e+03 +4.9355134948e+03 8.2403420323e+03 7.9829010000e+01 0.0000e+00 -1.0000e+00
       24  1    1    2    0    0 -1.4667285269e+03 +7.9422019389e+03 -5.8372011712e+03 9.9653978543e+03 7.9829010000e+01 0.0000e+00 -1.0000e+00
       22  1    1    2    0    0 +5.1839248419e+02 -1.4134121056e+03 +9.1847866608e+02 1.7635383773e+03 0.0000000000e+00 0.0000e+00 -1.0000e+00
       22  1    1    2    0    0 -2.5814746454e+01 -2.7955856406e+00 -1.6790989672e+01 3.0921736169e+01 0.0000000000e+00 0.0000e+00 -1.0000e+00
</event>
<event>
 6      1 +1.4834189e-01 1.00007100e+04 7.81653100e-03 6.93868200e-02
  1000022 -1    0    0    0    0 +0.0000000000e+00 +0.0000000000e+00 +4.4721471353e+01 1.0000100000e+04 1.0000000000e+04 0.0000e+00 -1.0000e+00
  1000022 -1    0    0    0    0 -0.0000000000e+00 -0.0000000000e+00 -4.4721471353e+01 1.0000100000e+04 1.0000000000e+04 0.0000e+00 -1.0000e+00
      -24  1    1    2    0    0 -3.7213239305e+03 -8.6091896234e+03 +3.2940472263e+03 9.9410018392e+03 7.9829010000e+01 0.0000e+00 -1.0000e+00
       24  1    1    2    0    0 +3.7479112536e+03 +8.6289273827e+03 -3.3011798085e+03 9.9704256348e+03 7.9829010000e+01 0.0000e+00 -1.0000e+00
       22  1    1    2    0    0 -2.9361933125e+01 -4.3758950870e+01 +2.5369321932e+01 5.8485651175e+01 0.0000000000e+00 0.0000e+00 -1.0000e+00
       22  1    1    2    0    0 +2.7746100793e+00 +2.4021191594e+01 -1.8236739738e+01 3.0286874764e+01 0.0000000000e+00 0.0000e+00 -1.0000e+00
</event>
<event>
 6      1 +1.4834189e-01 1.00014600e+04 7.81653100e-03 6.93863700e-02
  1000022 -1    0    0    0    0 +0.0000000000e+00 +0.0000000000e+00 +4.4721471353e+01 1.0000100000e+04 1.0000000000e+04 0.0000e+00 -1.0000e+00
  1000022 -1    0    0    0    0 -0.0000000000e+00 -0.0000000000e+00 -4.4721471353e+01 1.0000100000e+04 1.0000000000e+04 0.0000e+00 -1.0000e+00
      -24  1    1    2    0    0 -7.8846602334e+03 -3.6644542273e+03 +4.8178071252e+03 9.9405095416e+03 7.9829010000e+01 0.0000e+00 -1.0000e+00
       24  1    1    2    0    0 +7.6629820219e+03 +3.5624620836e+03 -4.7284538989e+03 9.6838565928e+03 7.9829010000e+01 0.0000e+00 -1.0000e+00
       22  1    1    2    0    0 -4.6985889947e+01 -2.0547355480e+01 +2.7586819470e+01 5.8231437212e+01 0.0000000000e+00 0.0000e+00 -1.0000e+00
       22  1    1    2    0    0 +2.6866410146e+02 +1.2253949909e+02 -1.1694004573e+02 3.1760242843e+02 0.0000000000e+00 0.0000e+00 -1.0000e+00
</event>
<event>
 6      1 +1.4834189e-01 1.00051200e+04 7.81653100e-03 6.93841600e-02
  1000022 -1    0    0    0    0 +0.0000000000e+00 +0.0000000000e+00 +4.4721471353e+01 1.0000100000e+04 1.0000000000e+04 0.0000e+00 -1.0000e+00
  1000022 -1    0    0    0    0 -0.0000000000e+00 -0.0000000000e+00 -4.4721471353e+01 1.0000100000e+04 1.0000000000e+04 0.0000e+00 -1.0000e+00
      -24  1    1    2    0    0 +1.4810146896e+03 -8.6445134638e+03 +4.7931354586e+03 9.9950756741e+03 7.9829010000e+01 0.0000e+00 -1.0000e+00
       24  1    1    2    0    0 -1.4990498625e+03 +8.5455196935e+03 -4.7377889743e+03 9.8856499209e+03 7.9829010000e+01 0.0000e+00 -1.0000e+00
       22  1    1    2    0    0 -5.5000743715e+00 +6.0187352594e+01 -3.3560085375e+01 6.9130655723e+01 0.0000000000e+00 0.0000e+00 1.0000e+00
       22  1    1    2    0    0 +2.3535247283e+01 +3.8806417651e+01 -2.1786398889e+01 5.0343749286e+01 0.0000000000e+00 0.0000e+00 1.0000e+00
</event>
<event>
 6      1 +1.4834189e-01 1.03470600e+04 7.81653100e-03 6.91818600e-02
  1000022 -1    0    0    0    0 +0.0000000000e+00 +0.0000000000e+00 +4.4721471353e+01 1.0000100000e+04 1.0000000000e+04 0.0000e+00 1.0000e+00
  1000022 -1    0    0    0    0 -0.0000000000e+00 -0.0000000000e+00 -4.4721471353e+01 1.0000100000e+04 1.0000000000e+04 0.0000e+00 1.0000e+00
      -24  1    1    2    0    0 -4.7691423077e+03 -7.8702804122e+02 +3.4497312658e+03 5.9389519249e+03 7.9829010000e+01 0.0000e+00 -1.0000e+00
       24  1    1    2    0    0 +7.6090848085e+03 +1.2667345665e+03 -5.4441152075e+03 9.4417980887e+03 7.9829010000e+01 0.0000e+00 -1.0000e+00
       22  1    1    2    0    0 +3.5745482830e+02 +6.6924290545e+02 +4.9380871117e+02 9.0526629452e+02 0.0000000000e+00 0.0000e+00 -1.0000e+00
       22  1    1    2    0    0 -3.1973973291e+03 -1.1489494307e+03 +1.5005752305e+03 3.7141836918e+03 0.0000000000e+00 0.0000e+00 -1.0000e+00
</event>
<event>
 6      1 +1.4834189e-01 1.00182400e+04 7.81653100e-03 6.93762500e-02
  1000022 -1    0    0    0    0 +0.0000000000e+00 +0.0000000000e+00 +4.4721471353e+01 1.0000100000e+04 1.0000000000e+04 0.0000e+00 -1.0000e+00
  1000022 -1    0    0    0    0 -0.0000000000e+00 -0.0000000000e+00 -4.4721471353e+01 1.0000100000e+04 1.0000000000e+04 0.0000e+00 -1.0000e+00
      -24  1    1    2    0    0 +4.8165592656e+02 +3.2486389967e+03 +9.4258950527e+03 9.9819596261e+03 7.9829010000e+01 0.0000e+00 -1.0000e+00
       24  1    1    2    0    0 -4.4849020722e+02 -3.2874687277e+03 -9.3065045379e+03 9.8805866975e+03 7.9829010000e+01 0.0000e+00 -1.0000e+00
       22  1    1    2    0    0 -1.6767672318e+00 -9.8660941513e+00 -2.4238981794e+01 2.6223645829e+01 0.0000000000e+00 0.0000e+00 1.0000e+00
       22  1    1    2    0    0 -3.1488952103e+01 +4.8695825133e+01 -9.5151532961e+01 1.1143003058e+02 0.0000000000e+00 0.0000e+00 -1.0000e+00
</event>
<event>
 6      1 +1.4834189e-01 1.00708800e+04 7.81653100e-03 6.93446300e-02
  1000022 -1    0    0    0    0 +0.0000000000e+00 +0.0000000000e+00 +4.4721471353e+01 1.0000100000e+04 1.0000000000e+04 0.0000e+00 1.0000e+00
  1000022 -1    0    0    0    0 -0.0000000000e+00 -0.0000000000e+00 -4.4721471353e+01 1.0000100000e+04 1.0000000000e+04 0.0000e+00 1.0000e+00
      -24  1    1    2    0    0 +5.5741954047e+01 +8.8490627086e+03 -1.9525817049e+03 9.0624481224e+03 7.9829010000e+01 0.0000e+00 1.0000e+00
       24  1    1    2    0    0 +2.2635735881e+02 -9.6546039967e+03 +2.1151827183e+03 9.8865052769e+03 7.9829010000e+01 0.0000e+00 1.0000e+00
       22  1    1    2    0    0 -1.4812791390e+02 -4.8509600487e+01 -9.8489064557e+01 1.8437775369e+02 0.0000000000e+00 0.0000e+00 1.0000e+00
       22  1    1    2    0    0 -1.3397139895e+02 +8.5405088855e+02 -6.4111948794e+01 8.6686884703e+02 0.0000000000e+00 0.0000e+00 1.0000e+00
</event>
<event>
 6      1 +1.4834189e-01 1.03495100e+04 7.81653100e-03 6.91804400e-02
  1000022 -1    0    0    0    0 +0.0000000000e+00 +0.0000000000e+00 +4.4721471353e+01 1.0000100000e+04 1.0000000000e+04 0.0000e+00 1.0000e+00
  1000022 -1    0    0    0    0 -0.0000000000e+00 -0.0000000000e+00 -4.4721471353e+01 1.0000100000e+04 1.0000000000e+04 0.0000e+00 1.0000e+00
      -24  1    1    2    0    0 -2.1088288340e+03 -5.1490360459e+03 -7.8595845884e+03 9.6301180588e+03 7.9829010000e+01 0.0000e+00 1.0000e+00
       24  1    1    2    0    0 +6.5093511806e+02 +3.2117133188e+02 +3.7614071732e+03 3.8316346571e+03 7.9829010000e+01 0.0000e+00 1.0000e+00
       22  1    1    2    0    0 +1.4660958766e+03 +4.8383171740e+03 +4.1138785237e+03 6.5178790035e+03 0.0000000000e+00 0.0000e+00 1.0000e+00
       22  1    1    2    0    0 -8.2021606753e+00 -1.0452459965e+01 -1.5701108480e+01 2.0568280593e+01 0.0000000000e+00 0.0000e+00 1.0000e+00
</event>
<event>
 6      1 +1.4834189e-01 1.01300700e+04 7.81653100e-03 6.93093100e-02
  1000022 -1    0    0    0    0 +0.0000000000e+00 +0.0000000000e+00 +4.4721471353e+01 1.0000100000e+04 1.0000000000e+04 0.0000e+00 -1.0000e+00
  1000022 -1    0    0    0    0 -0.0000000000e+00 -0.0000000000e+00 -4.4721471353e+01 1.0000100000e+04 1.0000000000e+04 0.0000e+00 -1.0000e+00
      -24  1    1    2    0    0 -8.1870178574e+03 -3.2261951316e+03 +4.0331825706e+03 9.6803166654e+03 7.9829010000e+01 0.0000e+00 -1.0000e+00
       24  1    1    2    0    0 +2.3075819723e+03 +2.0199479572e+03 -5.7004629062e+02 3.1203284688e+03 7.9829010000e+01 0.0000e+00 1.0000e+00
       22  1    1    2    0    0 -3.2317855816e+01 +1.1999306763e+02 +1.4348045504e+02 1.8981417509e+02 0.0000000000e+00 0.0000e+00 -1.0000e+00
       22  1    1    2    0    0 +5.9117537409e+03 +1.0862541068e+03 -3.6066167351e+03 7.0097406907e+03 0.0000000000e+00 0.0000e+00 -1.0000e+00
</event>
<event>
 6      1 +1.4834189e-01 1.00001200e+04 7.81653100e-03 6.93871800e-02
  1000022 -1    0    0    0    0 +0.0000000000e+00 +0.0000000000e+00 +4.4721471353e+01 1.0000100000e+04 1.0000000000e+04 0.0000e+00 1.0000e+00
  1000022 -1    0    0    0    0 -0.0000000000e+00 -0.0000000000e+00 -4.4721471353e+01 1.0000100000e+04 1.0000000000e+04 0.0000e+00 1.0000e+00
      -24  1    1    2    0    0 +5.8611996296e+03 +4.3031624310e+03 -5.1249658693e+03 8.8962079471e+03 7.9829010000e+01 0.0000e+00 -1.0000e+00
       24  1    1    2    0    0 -6.5283371168e+03 -4.7855750516e+03 +5.7064521512e+03 9.9040841530e+03 7.9829010000e+01 0.0000e+00 -1.0000e+00
       22  1    1    2    0    0 -6.3159480922e+01 -4.4660679586e+01 +5.6851509345e+01 9.5998908568e+01 0.0000000000e+00 0.0000e+00 1.0000e+00
       22  1    1    2    0    0 +7.3029696811e+02 +5.2707330020e+02 -6.3833779119e+02 1.1039089913e+03 0.0000000000e+00 0.0000e+00 1.0000e+00
</event>
<event>
 6      1 +1.4834189e-01 1.00001000e+04 7.81653100e-03 6.93871900e-02
  1000022 -1    0    0    0    0 +0.0000000000e+00 +0.0000000000e+00 +4.4721471353e+01 1.0000100000e+04 1.0000000000e+04 0.0000e+00 -1.0000e+00
  1000022 -1    0    0    0    0 -0.0000000000e+00 -0.0000000000e+00 -4.4721471353e+01 1.0000100000e+04 1.0000000000e+04 0.0000e+00 -1.0000e+00
      -24  1    1    2    0    0 +8.6796426657e+03 +1.5183305050e+02 +4.4631975294e+03 9.7614422570e+03 7.9829010000e+01 0.0000e+00 -1.0000e+00
       24  1    1    2    0    0 -8.7880960715e+03 -1.5831655683e+02 -4.5341258500e+03 9.8904179178e+03 7.9829010000e+01 0.0000e+00 -1.0000e+00
       22  1    1    2    0    0 -1.0010430847e+02 -6.6082522267e+00 -4.4344979212e+01 1.0968600072e+02 0.0000000000e+00 0.0000e+00 -1.0000e+00
       22  1    1    2    0    0 +2.0855771424e+02 +1.3091758563e+01 +1.1527329977e+02 2.3865382451e+02 0.0000000000e+00 0.0000e+00 1.0000e+00
</event>
<event>
 6      1 +1.4834189e-01 1.00107600e+04 7.81653100e-03 6.93807600e-02
  1000022 -1    0    0    0    0 +0.0000000000e+00 +0.0000000000e+00 +4.4721471353e+01 1.0000100000e+04 1.0000000000e+04 0.0000e+00 1.0000e+00
  1000022 -1    0    0    0    0 -0.0000000000e+00 -0.0000000000e+00 -4.4721471353e+01 1.0000100000e+04 1.0000000000e+04 0.0000e+00 1.0000e+00
      -24  1    1    2    0    0 +2.6104463293e+03 -4.4973437475e+02 -4.3188076093e+02 2.6850669840e+03 7.9829010000e+01 0.0000e+00 1.0000e+00
       24  1    1    2    0    0 -5.3855083623e+03 +4.5793145809e+02 +6.6126207382e+02 5.4458279207e+03 7.9829010000e+01 0.0000e+00 -1.0000e+00
       22  1    1    2    0    0 +7.3138379351e+03 -1.3961624447e+02 -3.9255870670e+02 7.3256958970e+03 0.0000000000e+00 0.0000e+00 1.0000e+00
       22  1    1    2    0    0 -4.5387759021e+03 +1.3141916113e+02 +1.6317739381e+02 4.5436091983e+03 0.0000000000e+00 0.0000e+00 1.0000e+00
</event>
<event>
 6      1 +1.4834189e-01 1.00039900e+04 7.81653100e-03 6.93848500e-02
  1000022 -1    0    0    0    0 +0.0000000000e+00 +0.0000000000e+00 +4.4721471353e+01 1.0000100000e+04 1.0000000000e+04 0.0000e+00 -1.0000e+00
  1000022 -1    0    0    0    0 -0.0000000000e+00 -0.0000000000e+00 -4.4721471353e+01 1.0000100000e+04 1.0000000000e+04 0.0000e+00 -1.0000e+00
      -24  1    1    2    0    0 -9.3496401724e+03 +1.8170865806e+03 +3.0332039055e+03 9.9962129628e+03 7.9829010000e+01 0.0000e+00 -1.0000e+00
       24  1    1    2    0    0 +6.2310603312e+03 -1.2530367911e+03 -1.9484308334e+03 6.6482305491e+03 7.9829010000e+01 0.0000e+00 -1.0000e+00
       22  1    1    2    0    0 +3.1075730601e+03 -5.6232041291e+02 -1.0930770801e+03 3.3418605706e+03 0.0000000000e+00 0.0000e+00 -1.0000e+00
       22  1    1    2    0    0 +1.1006781119e+01 -1.7293765687e+00 +8.3040079216e+00 1.3895917439e+01 0.0000000000e+00 0.0000e+00 1.0000e+00
</event>
<event>
 6      1 +1.4834189e-01 1.00231800e+04 7.81653100e-03 6.93732800e-02
  1000022 -1    0    0    0    0 +0.0000000000e+00 +0.0000000000e+00 +4.4721471353e+01 1.0000100000e+04 1.0000000000e+04 0.0000e+00 -1.0000e+00
  1000022 -1    0    0    0    0 -0.0000000000e+00 -0.0000000000e+00 -4.4721471353e+01 1.0000100000e+04 1.0000000000e+04 0.0000e+00 -1.0000e+00
      -24  1    1    2    0    0 +6.3090751185e+03 +1.2085037694e+02 -2.5122008388e+03 6.7923898144e+03 7.9829010000e+01 0.0000e+00 -1.0000e+00
       24  1    1    2    0    0 -9.1872914482e+03 -2.3156894641e+02 +3.8826092514e+03 9.9770223815e+03 7.9829010000e+01 0.0000e+00 -1.0000e+00
       22  1    1    2    0    0 -4.7560291230e+00 -1.6960551843e+01 -5.7925283565e+01 6.0544352403e+01 0.0000000000e+00 0.0000e+00 -1.0000e+00
       22  1    1    2    0    0 +2.8829723588e+03 +1.2767912132e+02 -1.3124831290e+03 3.1702434518e+03 0.0000000000e+00 0.0000e+00 -1.0000e+00
</event>
<event>
 6      1 +1.4834189e-01 1.00088100e+04 7.81653100e-03 6.93819300e-02
  1000022 -1    0    0    0    0 +0.0000000000e+00 +0.0000000000e+00 +4.4721471353e+01 1.0000100000e+04 1.0000000000e+04 0.0000e+00 1.0000e+00
  1000022 -1    0    0    0    0 -0.0000000000e+00 -0.0000000000e+00 -4.4721471353e+01 1.0000100000e+04 1.0000000000e+04 0.0000e+00 1.0000e+00
      -24  1    1    2    0    0 +5.1623938176e+03 -8.2779987208e+03 -1.9326018164e+03 9.9456973210e+03 7.9829010000e+01 0.0000e+00 -1.0000e+00
       24  1    1    2    0    0 -5.2019907985e+03 +8.2679215426e+03 +1.9238878091e+03 9.9562518989e+03 7.9829010000e+01 0.0000e+00 -1.0000e+00
       22  1    1    2    0    0 +6.0134622836e+01 -1.8278075798e+01 +5.7919765856e+00 6.3117413693e+01 0.0000000000e+00 0.0000e+00 1.0000e+00
       22  1    1    2    0    0 -2.0537641928e+01 +2.8355254071e+01 +2.9220307676e+00 3.5133366380e+01 0.0000000000e+00 0.0000e+00 1.0000e+00
</event>
<event>
 6      1 +1.4834189e-01 1.00134600e+04 7.81653100e-03 6.93791300e-02
  1000022 -1    0    0    0    0 +0.0000000000e+00 +0.0000000000e+00 +4.4721471353e+01 1.0000100000e+04 1.0000000000e+04 0.0000e+00 1.0000e+00
  1000022 -1    0    0    0    0 -0.0000000000e+00 -0.0000000000e+00 -4.4721471353e+01 1.0000100000e+04 1.0000000000e+04 0.0000e+00 1.0000e+00
      -24  1    1    2    0    0 -5.1976510032e+03 +1.5071471327e+03 +7.9773361285e+03 9.6400898756e+03 7.9829010000e+01 0.0000e+00 -1.0000e+00
       24  1    1    2    0    0 +5.0692349335e+03 -8.9179864174e+02 -7.1378717068e+03 8.8004563974e+03 7.9829010000e+01 0.0000e+00 -1.0000e+00
       22  1    1    2    0    0 +4.5785459493e+02 -7.2097585955e+02 -8.6135984191e+02 1.2130036263e+03 0.0000000000e+00 0.0000e+00 -1.0000e+00
       22  1    1    2    0    0 -3.2943852521e+02 +1.0562736861e+02 +2.1895420240e+01 3.4665010071e+02 0.0000000000e+00 0.0000e+00 -1.0000e+00
</event>
<event>
 6      1 +1.4834189e-01 1.00078600e+04 7.81653100e-03 6.93825100e-02
  1000022 -1    0    0    0    0 +0.0000000000e+00 +0.0000000000e+00 +4.4721471353e+01 1.0000100000e+04 1.0000000000e+04 0.0000e+00 -1.0000e+00
  1000022 -1    0    0    0    0 -0.0000000000e+00 -0.0000000000e+00 -4.4721471353e+01 1.0000100000e+04 1.0000000000e+04 0.0000e+00 -1.0000e+00
      -24  1    1    2    0    0 +3.8283033896e+02 -6.8010987557e+03 +7.3101964385e+03 9.9923394654e+03 7.9829010000e+01 0.0000e+00 1.0000e+00
       24  1    1    2    0    0 -2.7569574337e+02 +5.2414028239e+03 -5.6989675014e+03 7.7480910525e+03 7.9829010000e+01 0.0000e+00 1.0000e+00
       22  1    1    2    0    0 -1.1453907375e+02 +1.5440403897e+03 -1.6195439255e+03 2.2405585132e+03 0.0000000000e+00 0.0000e+00 1.0000e+00
       22  1    1    2    0    0 +7.4044781551e+00 +1.5655541993e+01 +8.3149883769e+00 1.9210968835e+01 0.0000000000e+00 0.0000e+00 1.0000e+00
</event>
<event>
 6      1 +1.4834189e-01 1.00093100e+04 7.81653100e-03 6.93816400e-02
  1000022 -1    0    0    0    0 +0.0000000000e+00 +0.0000000000e+00 +4.4721471353e+01 1.0000100000e+04 1.0000000000e+04 0.0000e+00 1.0000e+00
  1000022 -1    0    0    0    0 -0.0000000000e+00 -0.0000000000e+00 -4.4721471353e+01 1.0000100000e+04 1.0000000000e+04 0.0000e+00 1.0000e+00
      -24  1    1    2    0    0 +2.7716279202e+02 -2.0814150573e+03 +2.7585056815e+02 2.1193334001e+03 7.9829010000e+01 0.0000e+00 -1.0000e+00
       24  1    1    2    0    0 -4.1413722901e+02 +9.9402199939e+03 -9.1218686062e+02 9.9908928885e+03 7.9829010000e+01 0.0000e+00 -1.0000e+00
       22  1    1    2    0    0 -6.5068450002e+00 -8.7148314696e+00 -5.8567027296e+00 1.2352663124e+01 0.0000000000e+00 0.0000e+00 1.0000e+00
       22  1    1    2    0    0 +1.4348128199e+02 -7.8500901051e+03 +6.4219299520e+02 7.8776210483e+03 0.0000000000e+00 0.0000e+00 -1.0000e+00
</event>
<event>
 6      1 +1.4834189e-01 1.00003100e+04 7.81653100e-03 6.93870700e-02
  1000022 -1    0    0    0    0 +0.0000000000e+00 +0.0000000000e+00 +4.4721471353e+01 1.0000100000e+04 1.0000000000e+04 0.0000e+00 -1.0000e+00
  1000022 -1    0    0    0    0 -0.0000000000e+00 -0.0000000000e+00 -4.4721471353e+01 1.0000100000e+04 1.0000000000e+04 0.0000e+00 -1.0000e+00
      -24  1    1    2    0    0 -5.5841328346e+03 -7.3998748152e+03 -2.8196002837e+03 9.6900570291e+03 7.9829010000e+01 0.0000e+00 1.0000e+00
       24  1    1    2    0    0 +5.6772507648e+03 +7.5586507755e+03 +2.8679422637e+03 9.8790608507e+03 7.9829010000e+01 0.0000e+00 1.0000e+00
       22  1    1    2    0    0 +7.4305081444e+01 +8.9992609148e+01 +3.1293739472e+01 1.2082720290e+02 0.0000000000e+00 0.0000e+00 -1.0000e+00
       22  1    1    2    0    0 -1.6742301158e+02 -2.4876856941e+02 -7.9635719462e+01 3.1025491736e+02 0.0000000000e+00 0.0000e+00 1.0000e+00
</event>
<event>
 6      1 +1.4834189e-01 1.00088300e+04 7.81653100e-03 6.93819200e-02
  1000022 -1    0    0    0    0 +0.0000000000e+00 +0.0000000000e+00 +4.4721471353e+01 1.0000100000e+04 1.0000000000e+04 0.0000e+00 -1.0000e+00
  1000022 -1    0    0    0    0 -0.0000000000e+00 -0.0000000000e+00 -4.4721471353e+01 1.0000100000e+04 1.0000000000e+04 0.0000e+00 -1.0000e+00
      -24  1    1    2    0    0 +8.9932835566e+03 +5.3115439166e+02 -1.0437419343e+03 9.0695669143e+03 7.9829010000e+01 0.0000e+00 1.0000e+00
       24  1    1    2    0    0 -9.9052859333e+03 -5.6331997632e+02 +9.6021502722e+02 9.9679689198e+03 7.9829010000e+01 0.0000e+00 1.0000e+00
       22  1    1    2    0    0 -2.3215199382e+01 -6.6480211159e-01 +2.8598809609e+00 2.3400135967e+01 0.0000000000e+00 0.0000e+00 -1.0000e+00
       22  1    1    2    0    0 +9.3521757609e+02 +3.2830386775e+01 +8.0667026068e+01 9.3926402998e+02 0.0000000000e+00 0.0000e+00 1.0000e+00
</event>
<event>
 6      1 +1.4834189e-01 1.00026300e+04 7.81653100e-03 6.93856700e-02
  1000022 -1    0    0    0    0 +0.0000000000e+00 +0.0000000000e+00 +4.4721471353e+01 1.0000100000e+04 1.0000000000e+04 0.0000e+00 -1.0000e+00
  1000022 -1    0    0    0    0 -0.0000000000e+00 -0.0000000000e+00 -4.4721471353e+01 1.0000100000e+04 1.0000000000e+04 0.0000e+00 -1.0000e+00
      -24  1    1    2    0    0 -9.3660428364e+03 -1.3521734450e+03 +3.0473761859e+03 9.9420322735e+03 7.9829010000e+01 0.0000e+00 1.0000e+00
       24  1    1    2    0    0 +9.3917300456e+03 +1.3756216561e+03 -3.0491784948e+03 9.9699945012e+03 7.9829010000e+01 0.0000e+00 1.0000e+00
       22  1    1    2    0    0 +2.6272756304e+01 +7.0845660135e+00 -4.4888133691e+00 2.7578945681e+01 0.0000000000e+00 0.0000e+00 -1.0000e+00
       22  1    1    2    0    0 -5.1959965531e+01 -3.0532777125e+01 +6.2911222613e+00 6.0594279567e+01 0.0000000000e+00 0.0000e+00 1.0000e+00
</event>
<event>
 6      1 +1.4834189e-01 6.59882500e+03 7.81653100e-03 7.19929100e-02
  1000022 -1    0    0    0    0 +0.0000000000e+00 +0.0000000000e+00 +4.4721471353e+01 1.0000100000e+04 1.0000000000e+04 0.0000e+00 1.0000e+00
  1000022 -1    0    0    0    0 -0.0000000000e+00 -0.0000000000e+00 -4.4721471353e+01 1.0000100000e+04 1.0000000000e+04 0.0000e+00 1.0000e+00
      -24  1    1    2    0    0 -6.2107777553e+03 +4.7617838053e+02 +5.2067777069e+03 8.1189539311e+03 7.9829010000e+01 0.0000e+00 1.0000e+00
       24  1    1    2    0    0 +5.3713342387e+03 +1.9702263852e+03 -1.0262233894e+03 5.8131343205e+03 7.9829010000e+01 0.0000e+00 1.0000e+00
       22  1    1    2    0    0 -4.5736195707e+02 +4.7948450053e+02 +1.5379069108e+02 6.8024769216e+02 0.0000000000e+00 0.0000e+00 1.0000e+00
       22  1    1    2    0    0 +1.2968054737e+03 -2.9258892662e+03 -4.3343450086e+03 5.3878640562e+03 0.0000000000e+00 0.0000e+00 1.0000e+00
</event>
<event>
 6      1 +1.4834189e-01 1.00297600e+04 7.81653100e-03 6.93693200e-02
  1000022 -1    0    0    0    0 +0.0000000000e+00 +0.0000000000e+00 +4.4721471353e+01 1.0000100000e+04 1.0000000000e+04 0.0000e+00 -1.0000e+00
  1000022 -1    0    0    0    0 -0.0000000000e+00 -0.0000000000e+00 -4.4721471353e+01 1.0000100000e+04 1.0000000000e+04 0.0000e+00 -1.0000e+00
      -24  1    1    2    0    0 +1.5522157300e+03 -1.0800795472e+03 -5.2431684783e+02 1.9639822628e+03 7.9829010000e+01 0.0000e+00 -1.0000e+00
       24  1    1    2    0    0 -4.9424880132e+00 +1.2384171339e+02 +2.8467896938e+01 1.5014756128e+02 7.9829010000e+01 0.0000e+00 1.0000e+00
       22  1    1    2    0    0 -8.6416103199e+03 +4.2588926918e+03 +2.1888545429e+03 9.8796093086e+03 0.0000000000e+00 0.0000e+00 -1.0000e+00
       22  1    1    2    0    0 +7.0943370779e+03 -3.3026548579e+03 -1.6930055920e+03 8.0064608673e+03 0.0000000000e+00 0.0000e+00 -1.0000e+00
</event>
<event>
 6      1 +1.4834189e-01 6.82644900e+03 7.81653100e-03 7.17729200e-02
  1000022 -1    0    0    0    0 +0.0000000000e+00 +0.0000000000e+00 +4.4721471353e+01 1.0000100000e+04 1.0000000000e+04 0.0000e+00 -1.0000e+00
  1000022 -1    0    0    0    0 -0.0000000000e+00 -0.0000000000e+00 -4.4721471353e+01 1.0000100000e+04 1.0000000000e+04 0.0000e+00 -1.0000e+00
      -24  1    1    2    0    0 +1.3461876347e+03 +9.4314461135e+02 -7.7915427627e+02 1.8207682343e+03 7.9829010000e+01 0.0000e+00 1.0000e+00
       24  1    1    2    0    0 -1.4521078104e+03 +4.1969719563e+03 +2.9701692793e+03 5.3433574570e+03 7.9829010000e+01 0.0000e+00 1.0000e+00
       22  1    1    2    0    0 -3.5556535908e+03 -7.3358684064e+03 -2.7610481231e+02 8.1568297518e+03 0.0000000000e+00 0.0000e+00 1.0000e+00
       22  1    1    2    0    0 +3.6615737665e+03 +2.1957518387e+03 -1.9149101907e+03 4.6792445569e+03 0.0000000000e+00 0.0000e+00 1.0000e+00
</event>
<event>
 6      1 +1.4834189e-01 1.00062000e+04 7.81653100e-03 6.93835100e-02
  1000022 -1    0    0    0    0 +0.0000000000e+00 +0.0000000000e+00 +4.4721471353e+01 1.0000100000e+04 1.0000000000e+04 0.0000e+00 1.0000e+00
  1000022 -1    0    0    0    0 -0.0000000000e+00 -0.0000000000e+00 -4.4721471353e+01 1.0000100000e+04 1.0000000000e+04 0.0000e+00 1.0000e+00
      -24  1    1    2    0    0 +3.7932639732e+03 -7.6799548887e+03 -5.0375596159e+03 9.9375016084e+03 7.9829010000e+01 0.0000e+00 1.0000e+00
       24  1    1    2    0    0 -3.6843405255e+03 +7.5458841154e+03 +5.0038057895e+03 9.7754374450e+03 7.9829010000e+01 0.0000e+00 1.0000e+00
       22  1    1    2    0    0 -1.1351456750e+02 +1.5930945710e+02 +9.7485613333e+01 2.1856007175e+02 0.0000000000e+00 0.0000e+00 1.0000e+00
       22  1    1    2    0    0 +4.5911198577e+00 -2.5238683770e+01 -6.3731786908e+01 6.8700874830e+01 0.0000000000e+00 0.0000e+00 1.0000e+00
</event>
<event>
 6      1 +1.4834189e-01 1.00023200e+04 7.81653100e-03 6.93858500e-02
  1000022 -1    0    0    0    0 +0.0000000000e+00 +0.0000000000e+00 +4.4721471353e+01 1.0000100000e+04 1.0000000000e+04 0.0000e+00 1.0000e+00
  1000022 -1    0    0    0    0 -0.0000000000e+00 -0.0000000000e+00 -4.4721471353e+01 1.0000100000e+04 1.0000000000e+04 0.0000e+00 1.0000e+00
      -24  1    1    2    0    0 +2.5256016885e+03 -6.8940167298e+02 +8.8657401172e+03 9.2445475310e+03 7.9829010000e+01 0.0000e+00 1.0000e+00
       24  1    1    2    0    0 -2.7228588638e+03 +7.6636672371e+02 -9.5890553120e+03 9.9978814153e+03 7.9829010000e+01 0.0000e+00 1.0000e+00
       22  1    1    2    0    0 +1.8877131081e+02 -6.0979512142e+01 +7.0350058968e+02 7.3093514648e+02 0.0000000000e+00 0.0000e+00 1.0000e+00
       22  1    1    2    0    0 +8.4858645343e+00 -1.5985538587e+01 +1.9814605070e+01 2.6835907194e+01 0.0000000000e+00 0.0000e+00 -1.0000e+00
</event>
<event>
 6      1 +1.4834189e-01 1.00175900e+04 7.81653100e-03 6.93766500e-02
  1000022 -1    0    0    0    0 +0.0000000000e+00 +0.0000000000e+00 +4.4721471353e+01 1.0000100000e+04 1.0000000000e+04 0.0000e+00 1.0000e+00
  1000022 -1    0    0    0    0 -0.0000000000e+00 -0.0000000000e+00 -4.4721471353e+01 1.0000100000e+04 1.0000000000e+04 0.0000e+00 1.0000e+00
      -24  1    1    2    0    0 -3.4448732529e+03 +8.2313615143e+03 +4.4340194401e+03 9.9644049082e+03 7.9829010000e+01 0.0000e+00 -1.0000e+00
       24  1    1    2    0    0 +3.4462702231e+03 -8.1822828340e+03 -4.3593571713e+03 9.8912536336e+03 7.9829010000e+01 0.0000e+00 -1.0000e+00
       22  1    1    2    0    0 -3.1966977104e+01 +2.6422507335e+01 -3.3291332074e+01 5.3182227391e+01 0.0000000000e+00 0.0000e+00 -1.0000e+00
       22  1    1    2    0    0 +3.0570006887e+01 -7.5501187642e+01 -4.1370936657e+01 9.1359230821e+01 0.0000000000e+00 0.0000e+00 -1.0000e+00
</event>
<event>
 6      1 +1.4834189e-01 1.13630000e+04 7.81653100e-03 6.86242900e-02
  1000022 -1    0    0    0    0 +0.0000000000e+00 +0.0000000000e+00 +4.4721471353e+01 1.0000100000e+04 1.0000000000e+04 0.0000e+00 -1.0000e+00
  1000022 -1    0    0    0    0 -0.0000000000e+00 -0.0000000000e+00 -4.4721471353e+01 1.0000100000e+04 1.0000000000e+04 0.0000e+00 -1.0000e+00
      -24  1    1    2    0    0 +2.1530416415e+03 +5.9232211391e+03 +2.2933398379e+03 6.7071541845e+03 7.9829010000e+01 0.0000e+00 1.0000e+00
       24  1    1    2    0    0 +2.1902251045e+02 -6.9884664616e+03 -5.0703305614e+03 8.6372020365e+03 7.9829010000e+01 0.0000e+00 1.0000e+00
       22  1    1    2    0    0 +2.8213172791e+02 +9.3142047141e+02 +2.8851524239e+02 1.0150780519e+03 0.0000000000e+00 0.0000e+00 -1.0000e+00
       22  1    1    2    0    0 -2.6541958798e+03 +1.3382485118e+02 +2.4884754811e+03 3.6407657271e+03 0.0000000000e+00 0.0000e+00 1.0000e+00
</event>
<event>
 6      1 +1.4834189e-01 1.00165900e+04 7.81653100e-03 6.93772500e-02
  1000022 -1    0    0    0    0 +0.0000000000e+00 +0.0000000000e+00 +4.4721471353e+01 1.0000100000e+04 1.0000000000e+04 0.0000e+00 -1.0000e+00
  1000022 -1    0    0    0    0 -0.0000000000e+00 -0.0000000000e+00 -4.4721471353e+01 1.0000100000e+04 1.0000000000e+04 0.0000e+00 -1.0000e+00
      -24  1    1    2    0    0 -3.9952883710e+03 -7.4382698163e+03 +5.2805873666e+03 9.9589739750e+03 7.9829010000e+01 0.0000e+00 1.0000e+00
       24  1    1    2    0    0 +3.9829775240e+03 +7.4028683195e+03 -5.2040079179e+03 9.8870946386e+03 7.9829010000e+01 0.0000e+00 1.0000e+00
       22  1    1    2    0    0 -2.6532485299e+01 -4.0458875952e+01 -3.1282405152e+01 5.7614948507e+01 0.0000000000e+00 0.0000e+00 -1.0000e+00
       22  1    1    2    0    0 +3.8843332311e+01 +7.5860372819e+01 -4.5297043507e+01 9.6516437874e+01 0.0000000000e+00 0.0000e+00 -1.0000e+00
</event>
<event>
 6      1 +1.4834189e-01 1.00003600e+04 7.81653100e-03 6.93870400e-02
  1000022 -1    0    0    0    0 +0.0000000000e+00 +0.0000000000e+00 +4.4721471353e+01 1.0000100000e+04 1.0000000000e+04 0.0000e+00 -1.0000e+00
  1000022 -1    0    0    0    0 -0.0000000000e+00 -0.0000000000e+00 -4.4721471353e+01 1.0000100000e+04 1.0000000000e+04 0.0000e+00 -1.0000e+00
      -24  1    1    2    0    0 +8.2574694082e+03 +1.8371124359e+03 -2.5021383936e+02 8.4634368176e+03 7.9829010000e+01 0.0000e+00 -1.0000e+00
       24  1    1    2    0    0 -9.7264430351e+03 -2.0857645372e+03 +2.8006618870e+02 9.9518298599e+03 7.9829010000e+01 0.0000e+00 -1.0000e+00
       22  1    1    2    0    0 -4.7480773411e+01 -3.2609307308e-01 -7.0808505172e+00 4.8006964332e+01 0.0000000000e+00 0.0000e+00 -1.0000e+00
       22  1    1    2    0    0 +1.5164544003e+03 +2.4897819430e+02 -2.2771498828e+01 1.5369263582e+03 0.0000000000e+00 0.0000e+00 -1.0000e+00
</event>
<event>
 6      1 +1.4834189e-01 1.00002300e+04 7.81653100e-03 6.93871200e-02
  1000022 -1    0    0    0    0 +0.0000000000e+00 +0.0000000000e+00 +4.4721471353e+01 1.0000100000e+04 1.0000000000e+04 0.0000e+00 1.0000e+00
  1000022 -1    0    0    0    0 -0.0000000000e+00 -0.0000000000e+00 -4.4721471353e+01 1.0000100000e+04 1.0000000000e+04 0.0000e+00 1.0000e+00
      -24  1    1    2    0    0 -7.4310138627e+03 -5.9929059465e+03 -2.9033419787e+03 9.9785097098e+03 7.9829010000e+01 0.0000e+00 1.0000e+00
       24  1    1    2    0    0 +7.3140500749e+03 +5.8884551325e+03 +2.8505839267e+03 9.8133293912e+03 7.9829010000e+01 0.0000e+00 1.0000e+00
       22  1    1    2    0    0 -1.5710799136e+01 -1.3238111695e+01 -6.2123602695e+00 2.1463229740e+01 0.0000000000e+00 0.0000e+00 1.0000e+00
       22  1    1    2    0    0 +1.3267458700e+02 +1.1768892570e+02 +5.8970412255e+01 1.8689766930e+02 0.0000000000e+00 0.0000e+00 1.0000e+00
</event>
<event>
 6      1 +1.4834189e-01 1.00652100e+04 7.81653100e-03 6.93480300e-02
  1000022 -1    0    0    0    0 +0.0000000000e+00 +0.0000000000e+00 +4.4721471353e+01 1.0000100000e+04 1.0000000000e+04 0.0000e+00 -1.0000e+00
  1000022 -1    0    0    0    0 -0.0000000000e+00 -0.0000000000e+00 -4.4721471353e+01 1.0000100000e+04 1.0000000000e+04 0.0000e+00 -1.0000e+00
      -24  1    1    2    0    0 +8.0385267128e+03 +3.6394259807e+03 +4.2343116237e+03 9.7877015064e+03 7.9829010000e+01 0.0000e+00 1.0000e+00
       24  1    1    2    0    0 -9.6213415638e+02 +6.0211019103e+01 -2.7173618561e+02 1.0047590393e+03 7.9829010000e+01 0.0000e+00 1.0000e+00
       22  1    1    2    0    0 -7.1819667109e+03 -3.7648980024e+03 -4.0418722490e+03 9.0604544082e+03 0.0000000000e+00 0.0000e+00 1.0000e+00
       22  1    1    2    0    0 +1.0557415453e+02 +6.5261002664e+01 +7.9296810920e+01 1.4728504607e+02 0.0000000000e+00 0.0000e+00 -1.0000e+00
</event>
<event>
 6      1 +1.4834189e-01 1.00001500e+04 7.81653100e-03 6.93871600e-02
  1000022 -1    0    0    0    0 +0.0000000000e+00 +0.0000000000e+00 +4.4721471353e+01 1.0000100000e+04 1.0000000000e+04 0.0000e+00 1.0000e+00
  1000022 -1    0    0    0    0 -0.0000000000e+00 -0.0000000000e+00 -4.4721471353e+01 1.0000100000e+04 1.0000000000e+04 0.0000e+00 1.0000e+00
      -24  1    1    2    0    0 +4.0867763065e+03 +1.6892765221e+03 -8.9229826434e+03 9.9589852732e+03 7.9829010000e+01 0.0000e+00 -1.0000e+00
       24  1    1    2    0    0 -4.0518478405e+03 -1.6696596596e+03 +8.8497422225e+03 9.8757047534e+03 7.9829010000e+01 0.0000e+00 -1.0000e+00
       22  1    1    2    0    0 +1.5924102459e+01 +6.6027537734e+00 -3.7271954170e+01 4.1065459502e+01 0.0000000000e+00 0.0000e+00 1.0000e+00
       22  1    1    2    0    0 -5.0852568432e+01 -2.6219616303e+01 +1.1051237502e+02 1.2444451385e+02 0.0000000000e+00 0.0000e+00 -1.0000e+00
</event>
<event>
 6      1 +1.4834189e-01 1.03568400e+04 7.81653100e-03 6.91761900e-02
  1000022 -1    0    0    0    0 +0.0000000000e+00 +0.0000000000e+00 +4.4721471353e+01 1.0000100000e+04 1.0000000000e+04 0.0000e+00 1.0000e+00
  1000022 -1    0    0    0    0 -0.0000000000e+00 -0.0000000000e+00 -4.4721471353e+01 1.0000100000e+04 1.0000000000e+04 0.0000e+00 1.0000e+00
      -24  1    1    2    0    0 +3.2155794438e+03 +3.1668420039e+03 -8.1113301410e+03 9.2827199012e+03 7.9829010000e+01 0.0000e+00 -1.0000e+00
       24  1    1    2    0    0 -2.9874102926e+03 -4.0937002254e+03 +8.2039656262e+03 9.6433617820e+03 7.9829010000e+01 0.0000e+00 -1.0000e+00
       22  1    1    2    0    0 +5.7700626029e+01 +5.5235332169e+01 -1.3386771548e+02 1.5588736129e+02 0.0000000000e+00 0.0000e+00 1.0000e+00
       22  1    1    2    0    0 -2.8586977725e+02 +8.7162288939e+02 +4.1232230260e+01 9.1823095552e+02 0.0000000000e+00 0.0000e+00 -1.0000e+00
</event>
<event>
 6      1 +1.4834189e-01 1.02488000e+04 7.81653100e-03 6.92391800e-02
  1000022 -1    0    0    0    0 +0.0000000000e+00 +0.0000000000e+00 +4.4721471353e+01 1.0000100000e+04 1.0000000000e+04 0.0000e+00 -1.0000e+00
  1000022 -1    0    0    0    0 -0.0000000000e+00 -0.0000000000e+00 -4.4721471353e+01 1.0000100000e+04 1.0000000000e+04 0.0000e+00 -1.0000e+00
      -24  1    1    2    0    0 +9.0462925982e+03 -3.5534287100e+03 +4.4878607404e+02 9.7298533895e+03 7.9829010000e+01 0.0000e+00 -1.0000e+00
       24  1    1    2    0    0 -1.0485626335e+03 -2.2170318926e+02 +7.3872986320e+02 1.3041205397e+03 7.9829010000e+01 0.0000e+00 1.0000e+00
       22  1    1    2    0    0 +2.0303928899e+01 -7.0635761101e+00 +1.3894915923e+00 2.1542384341e+01 0.0000000000e+00 0.0000e+00 -1.0000e+00
       22  1    1    2    0    0 -8.0180338936e+03 +3.7821954754e+03 -1.1889054288e+03 8.9446836865e+03 0.0000000000e+00 0.0000e+00 -1.0000e+00
</event>
<event>
 6      1 +1.4834189e-01 1.01426000e+04 7.81653100e-03 6.93018600e-02
  1000022 -1    0    0    0    0 +0.0000000000e+00 +0.0000000000e+00 +4.4721471353e+01 1.0000100000e+04 1.0000000000e+04 0.0000e+00 -1.0000e+00
  1000022 -1    0    0    0    0 -0.0000000000e+00 -0.0000000000e+00 -4.4721471353e+01 1.0000100000e+04 1.0000000000e+04 0.0000e+00 -1.0000e+00
      -24  1    1    2    0    0 -5.9556679720e+03 +2.0904627300e+03 +7.5713869694e+03 9.8576005564e+03 7.9829010000e+01 0.0000e+00 -1.0000e+00
       24  1    1    2    0    0 +5.9772574279e+02 -1.3572335504e+02 -9.3498205970e+02 1.1208305026e+03 7.9829010000e+01 0.0000e+00 1.0000e+00
       22  1    1    2    0    0 +1.9177993679e+03 -1.6190332248e+03 -1.8508128053e+03 3.1184501021e+03 0.0000000000e+00 0.0000e+00 -1.0000e+00
       22  1    1    2    0    0 +3.4401428613e+03 -3.3570615012e+02 -4.7855921043e+03 5.9033188390e+03 0.0000000000e+00 0.0000e+00 -1.0000e+00
</event>
<event>
 6      1 +1.4834189e-01 1.00722700e+04 7.81653100e-03 6.93438000e-02
  1000022 -1    0    0    0    0 +0.0000000000e+00 +0.0000000000e+00 +4.4721471353e+01 1.0000100000e+04 1.0000000000e+04 0.0000e+00 -1.0000e+00
  1000022 -1    0    0    0    0 -0.0000000000e+00 -0.0000000000e+00 -4.4721471353e+01 1.0000100000e+04 1.0000000000e+04 0.0000e+00 -1.0000e+00
      -24  1    1    2    0    0 -3.5533358680e+03 +6.8806087416e+03 +5.9121523965e+03 9.7431458511e+03 7.9829010000e+01 0.0000e+00 -1.0000e+00
       24  1    1    2    0    0 +3.6970536173e+03 -6.7121921175e+03 -6.1181804895e+03 9.8061324509e+03 7.9829010000e+01 0.0000e+00 -1.0000e+00
       22  1    1    2    0    0 +2.3481229433e+01 -9.7899043083e+01 -6.8551318571e+01 1.2179849773e+02 0.0000000000e+00 0.0000e+00 -1.0000e+00
       22  1    1    2    0    0 -1.6719897874e+02 -7.0517581015e+01 +2.7457941156e+02 3.2912320030e+02 0.0000000000e+00 0.0000e+00 1.0000e+00
</event>
<event>
 6      1 +1.4834189e-01 1.00059900e+04 7.81653100e-03 6.93836400e-02
  1000022 -1    0    0    0    0 +0.0000000000e+00 +0.0000000000e+00 +4.4721471353e+01 1.0000100000e+04 1.0000000000e+04 0.0000e+00 -1.0000e+00
  1000022 -1    0    0    0    0 -0.0000000000e+00 -0.0000000000e+00 -4.4721471353e+01 1.0000100000e+04 1.0000000000e+04 0.0000e+00 -1.0000e+00
      -24  1    1    2    0    0 +1.4357391278e+01 +9.6195842643e+02 +1.1354357730e+03 1.4903547277e+03 7.9829010000e+01 0.0000e+00 -1.0000e+00
       24  1    1    2    0    0 -9.5914672669e+02 -6.8643247150e+03 -7.1493635212e+03 9.9578455333e+03 7.9829010000e+01 0.0000e+00 -1.0000e+00
       22  1    1    2    0    0 -3.9829332295e+00 -2.5416161272e+01 -2.5707314256e+01 3.6369094259e+01 0.0000000000e+00 0.0000e+00 -1.0000e+00
       22  1    1    2    0    0 +9.4877226864e+02 +5.9277824498e+03 +6.0396350625e+03 8.5156306447e+03 0.0000000000e+00 0.0000e+00 -1.0000e+00
</event>
<event>
 6      1 +1.4834189e-01 1.03056900e+04 7.81653100e-03 6.92059200e-02
  1000022 -1    0    0    0    0 +0.0000000000e+00 +0.0000000000e+00 +4.4721471353e+01 1.0000100000e+04 1.0000000000e+04 0.0000e+00 1.0000e+00
  1000022 -1    0    0    0    0 -0.0000000000e+00 -0.0000000000e+00 -4.4721471353e+01 1.0000100000e+04 1.0000000000e+04 0.0000e+00 1.0000e+00
      -24  1    1    2    0    0 +2.8037288828e+02 -3.5854726004e+02 -2.2593056023e+03 2.3060788299e+03 7.9829010000e+01 0.0000e+00 1.0000e+00
       24  1    1    2    0    0 +2.3144924041e+03 +5.7704384507e+03 +6.5478423744e+03 9.0296980809e+03 7.9829010000e+01 0.0000e+00 1.0000e+00
       22  1    1    2    0    0 -2.6731230478e+03 -5.7895335261e+03 -4.8300550337e+03 7.9996072970e+03 0.0000000000e+00 0.0000e+00 1.0000e+00
       22  1    1    2    0    0 +7.8257755372e+01 +3.7764233544e+02 +5.4151826166e+02 6.6481579216e+02 0.0000000000e+00 0.0000e+00 1.0000e+00
</event>
<event>
 6      1 +1.4834189e-01 1.00004100e+04 7.81653100e-03 6.93870000e-02
  1000022 -1    0    0    0    0 +0.0000000000e+00 +0.0000000000e+00 +4.4721471353e+01 1.0000100000e+04 1.0000000000e+04 0.0000e+00 1.0000e+00
  1000022 -1    0    0    0    0 -0.0000000000e+00 -0.0000000000e+00 -4.4721471353e+01 1.0000100000e+04 1.0000000000e+04 0.0000e+00 1.0000e+00
      -24  1    1    2    0    0 +9.3292372247e+03 +1.0445130568e+03 +2.3277560929e+03 9.6721505271e+03 7.9829010000e+01 0.0000e+00 1.0000e+00
       24  1    1    2    0    0 -9.1332187065e+03 -1.0497881729e+03 -2.2784285339e+03 9.4718186429e+03 7.9829010000e+01 0.0000e+00 1.0000e+00
       22  1    1    2    0    0 +3.1510285355e+02 +3.7472916994e+01 +8.1556258570e+01 3.2763615663e+02 0.0000000000e+00 0.0000e+00 1.0000e+00
       22  1    1    2    0    0 -5.1112137168e+02 -3.2197800857e+01 -1.3088381764e+02 5.2859467335e+02 0.0000000000e+00 0.0000e+00 -1.0000e+00
</event>
<event>
 6      1 +1.4834189e-01 1.00053500e+04 7.81653100e-03 6.93840300e-02
  1000022 -1    0    0    0    0 +0.0000000000e+00 +0.0000000000e+00 +4.4721471353e+01 1.0000100000e+04 1.0000000000e+04 0.0000e+00 1.0000e+00
  1000022 -1    0    0    0    0 -0.0000000000e+00 -0.0000000000e+00 -4.4721471353e+01 1.0000100000e+04 1.0000000000e+04 0.0000e+00 1.0000e+00
      -24  1    1    2    0    0 -7.4557504855e+03 +3.6630436153e+03 +5.3399044128e+03 9.8755787495e+03 7.9829010000e+01 0.0000e+00 -1.0000e+00
       24  1    1    2    0    0 +7.5459892331e+03 -3.7059001092e+03 -5.3430666222e+03 9.9614448111e+03 7.9829010000e+01 0.0000e+00 -1.0000e+00
       22  1    1    2    0    0 +2.5109001031e+01 -1.2698521310e+01 -1.8011098486e+01 3.3408293057e+01 0.0000000000e+00 0.0000e+00 1.0000e+00
       22  1    1    2    0    0 -1.1534774861e+02 +5.5555015206e+01 +2.1173307889e+01 1.2976814629e+02 0.0000000000e+00 0.0000e+00 -1.0000e+00
</event>
<event>
 6      1 +1.4834189e-01 1.01337600e+04 7.81653100e-03 6.93071200e-02
  1000022 -1    0    0    0    0 +0.0000000000e+00 +0.0000000000e+00 +4.4721471353e+01 1.0000100000e+04 1.0000000000e+04 0.0000e+00 1.0000e+00
  1000022 -1    0    0    0    0 -0.0000000000e+00 -0.0000000000e+00 -4.4721471353e+01 1.0000100000e+04 1.0000000000e+04 0.0000e+00 1.0000e+00
      -24  1    1    2    0    0 +5.7475763579e+02 -1.5121758292e+02 -3.6933155922e+01 6.0079100037e+02 7.9829010000e+01 0.0000e+00 1.0000e+00
       24  1    1    2    0    0 -8.4132372722e+03 -3.0563531977e+03 -4.1492699773e+03 9.8664416221e+03 7.9829010000e+01 0.0000e+00 -1.0000e+00
       22  1    1    2    0    0 +1.1146750737e+02 -8.9753250159e+01 +1.6693287108e+02 2.1988004584e+02 0.0000000000e+00 0.0000e+00 -1.0000e+00
       22  1    1    2    0    0 +7.7270121290e+03 +3.2973240308e+03 +4.0192702622e+03 9.3130873316e+03 0.0000000000e+00 0.0000e+00 -1.0000e+00
</event>
<event>
 6      1 +1.4834189e-01 1.01223800e+04 7.81653100e-03 6.93138900e-02
  1000022 -1    0    0    0    0 +0.0000000000e+00 +0.0000000000e+00 +4.4721471353e+01 1.0000100000e+04 1.0000000000e+04 0.0000e+00 1.0000e+00
  1000022 -1    0    0    0    0 -0.0000000000e+00 -0.0000000000e+00 -4.4721471353e+01 1.0000100000e+04 1.0000000000e+04 0.0000e+00 1.0000e+00
      -24  1    1    2    0    0 +1.4351897576e+03 -3.7255104309e+03 +8.4276581687e+03 9.3258239577e+03 7.9829010000e+01 0.0000e+00 -1.0000e+00
       24  1    1    2    0    0 -1.6296822280e+03 +2.9906464987e+03 -8.1244349696e+03 8.8098040212e+03 7.9829010000e+01 0.0000e+00 -1.0000e+00
       22  1    1    2    0    0 +2.7994289838e+02 +3.1597217577e+02 +6.7549470074e+02 7.9655478967e+02 0.0000000000e+00 0.0000e+00 1.0000e+00
       22  1    1    2    0    0 -8.5450427978e+01 +4.1889175642e+02 -9.7871789980e+02 1.0680172314e+03 0.0000000000e+00 0.0000e+00 -1.0000e+00
</event>
<event>
 6      1 +1.4834189e-01 9.77522600e+03 7.81653100e-03 6.95248000e-02
  1000022 -1    0    0    0    0 +0.0000000000e+00 +0.0000000000e+00 +4.4721471353e+01 1.0000100000e+04 1.0000000000e+04 0.0000e+00 1.0000e+00
  1000022 -1    0    0    0    0 -0.0000000000e+00 -0.0000000000e+00 -4.4721471353e+01 1.0000100000e+04 1.0000000000e+04 0.0000e+00 1.0000e+00
      -24  1    1    2    0    0 +4.6434653245e+03 -7.3687968744e+03 -4.6280623671e+03 9.8633803303e+03 7.9829010000e+01 0.0000e+00 1.0000e+00
       24  1    1    2    0    0 +1.1281193799e+02 +1.4506343737e+02 +1.0923690428e+02 2.2820014529e+02 7.9829010000e+01 0.0000e+00 -1.0000e+00
       22  1    1    2    0    0 -4.9003623842e+03 +7.1050100966e+03 +4.4078931911e+03 9.6914520250e+03 0.0000000000e+00 0.0000e+00 1.0000e+00
       22  1    1    2    0    0 +1.4408512170e+02 +1.1872334035e+02 +1.1093227181e+02 2.1716749934e+02 0.0000000000e+00 0.0000e+00 -1.0000e+00
</event>
<event>
 6      1 +1.4834189e-01 1.00982900e+04 7.81653100e-03 6.93282400e-02
  1000022 -1    0    0    0    0 +0.0000000000e+00 +0.0000000000e+00 +4.4721471353e+01 1.0000100000e+04 1.0000000000e+04 0.0000e+00 1.0000e+00
  1000022 -1    0    0    0    0 -0.0000000000e+00 -0.0000000000e+00 -4.4721471353e+01 1.0000100000e+04 1.0000000000e+04 0.0000e+00 1.0000e+00
      -24  1    1    2    0    0 -4.9592492690e+03 +6.1611622703e+03 +2.2078469744e+03 8.2118837526e+03 7.9829010000e+01 0.0000e+00 -1.0000e+00
       24  1    1    2    0    0 +5.9954323619e+03 -7.0620682307e+03 -3.4961898712e+03 9.9019055331e+03 7.9829010000e+01 0.0000e+00 -1.0000e+00
       22  1    1    2    0    0 -3.6416859253e+01 +3.2004614917e+01 +7.9623930689e+01 9.3222601081e+01 0.0000000000e+00 0.0000e+00 1.0000e+00
       22  1    1    2    0    0 -9.9976623367e+02 +8.6890134542e+02 +1.2087189661e+03 1.7931881131e+03 0.0000000000e+00 0.0000e+00 1.0000e+00
</event>
<event>
 6      1 +1.4834189e-01 1.00248000e+04 7.81653100e-03 6.93723000e-02
  1000022 -1    0    0    0    0 +0.0000000000e+00 +0.0000000000e+00 +4.4721471353e+01 1.0000100000e+04 1.0000000000e+04 0.0000e+00 1.0000e+00
  1000022 -1    0    0    0    0 -0.0000000000e+00 -0.0000000000e+00 -4.4721471353e+01 1.0000100000e+04 1.0000000000e+04 0.0000e+00 1.0000e+00
      -24  1    1    2    0    0 +1.2513707367e+03 -4.8687688867e+03 +8.6157617496e+03 9.9753978562e+03 7.9829010000e+01 0.0000e+00 -1.0000e+00
       24  1    1    2    0    0 -4.2491235291e+02 +1.6893413568e+03 -3.1665315501e+03 3.6149300763e+03 7.9829010000e+01 0.0000e+00 -1.0000e+00
       22  1    1    2    0    0 -7.7963155693e+01 +9.0809903850e+00 -2.4489257939e+01 8.2221905758e+01 0.0000000000e+00 0.0000e+00 -1.0000e+00
       22  1    1    2    0    0 -7.4849522812e+02 +3.1703465395e+03 -5.4247409416e+03 6.3276501618e+03 0.0000000000e+00 0.0000e+00 -1.0000e+00
</event>
<event>
 6      1 +1.4834189e-01 1.00993000e+04 7.81653100e-03 6.93276400e-02
  1000022 -1    0    0    0    0 +0.0000000000e+00 +0.0000000000e+00 +4.4721471353e+01 1.0000100000e+04 1.0000000000e+04 0.0000e+00 1.0000e+00
  1000022 -1    0    0    0    0 -0.0000000000e+00 -0.0000000000e+00 -4.4721471353e+01 1.0000100000e+04 1.0000000000e+04 0.0000e+00 1.0000e+00
      -24  1    1    2    0    0 +9.0690081474e+02 +1.0231906402e+02 +1.7441078693e+02 9.3259319752e+02 7.9829010000e+01 0.0000e+00 -1.0000e+00
       24  1    1    2    0    0 -7.1173379797e+03 +2.1361838165e+03 +2.4222193850e+03 7.8162203548e+03 7.9829010000e+01 0.0000e+00 1.0000e+00
       22  1    1    2    0    0 -1.7267178530e+03 +6.1655351957e+02 +9.9206619523e+02 2.0846793812e+03 0.0000000000e+00 0.0000e+00 -1.0000e+00
       22  1    1    2    0    0 +7.9371550180e+03 -2.8550564000e+03 -3.5886963672e+03 9.1667070665e+03 0.0000000000e+00 0.0000e+00 1.0000e+00
</event>
<event>
 6      1 +1.4834189e-01 1.00108900e+04 7.81653100e-03 6.93806800e-02
  1000022 -1    0    0    0    0 +0.0000000000e+00 +0.0000000000e+00 +4.4721471353e+01 1.0000100000e+04 1.0000000000e+04 0.0000e+00 -1.0000e+00
  1000022 -1    0    0    0    0 -0.0000000000e+00 -0.0000000000e+00 -4.4721471353e+01 1.0000100000e+04 1.0000000000e+04 0.0000e+00 -1.0000e+00
      -24  1    1    2    0    0 +1.2121877649e+03 +3.1488493397e+03 -2.4647491824e+03 4.1792358805e+03 7.9829010000e+01 0.0000e+00 1.0000e+00
       24  1    1    2    0    0 -3.0717190364e+03 -7.1011045182e+03 +6.3181308307e+03 9.9893089391e+03 7.9829010000e+01 0.0000e+00 1.0000e+00
       22  1    1    2    0    0 -9.5301115066e+00 +3.7794398058e+01 -2.7154590241e+01 4.7503803227e+01 0.0000000000e+00 0.0000e+00 -1.0000e+00
       22  1    1    2    0    0 +1.8690613830e+03 +3.9144607804e+03 -3.8262270581e+03 5.7841513772e+03 0.0000000000e+00 0.0000e+00 1.0000e+00
</event>
<event>
 6      1 +1.4834189e-01 1.00001100e+04 7.81653100e-03 6.93871900e-02
  1000022 -1    0    0    0    0 +0.0000000000e+00 +0.0000000000e+00 +4.4721471353e+01 1.0000100000e+04 1.0000000000e+04 0.0000e+00 -1.0000e+00
  1000022 -1    0    0    0    0 -0.0000000000e+00 -0.0000000000e+00 -4.4721471353e+01 1.0000100000e+04 1.0000000000e+04 0.0000e+00 -1.0000e+00
      -24  1    1    2    0    0 -5.5338682895e+03 +8.0377971463e+03 -2.0624025977e+03 9.9744552912e+03 7.9829010000e+01 0.0000e+00 1.0000e+00
       24  1    1    2    0    0 +5.5154157588e+03 -8.0139535796e+03 +2.0549132462e+03 9.9434553394e+03 7.9829010000e+01 0.0000e+00 1.0000e+00
       22  1    1    2    0    0 +3.2594082368e+01 -4.4698375767e+01 +1.2215095729e+01 5.6652692480e+01 0.0000000000e+00 0.0000e+00 -1.0000e+00
       22  1    1    2    0    0 -1.4141551651e+01 +2.0854809032e+01 -4.7257442205e+00 2.5636676877e+01 0.0000000000e+00 0.0000e+00 -1.0000e+00
</event>
<event>
 6      1 +1.4834189e-01 1.02445100e+04 7.81653100e-03 6.92417000e-02
  1000022 -1    0    0    0    0 +0.0000000000e+00 +0.0000000000e+00 +4.4721471353e+01 1.0000100000e+04 1.0000000000e+04 0.0000e+00 1.0000e+00
  1000022 -1    0    0    0    0 -0.0000000000e+00 -0.0000000000e+00 -4.4721471353e+01 1.0000100000e+04 1.0000000000e+04 0.0000e+00 1.0000e+00
      -24  1    1    2    0    0 +5.4824217290e+03 +4.6223178805e+03 +6.4830179786e+03 9.6674022045e+03 7.9829010000e+01 0.0000e+00 -1.0000e+00
       24  1    1    2    0    0 -3.4139230895e+03 -3.2670258606e+03 -4.8622357944e+03 6.7805632824e+03 7.9829010000e+01 0.0000e+00 -1.0000e+00
       22  1    1    2    0    0 -4.3677500738e+02 +2.0635756132e+02 +3.1574271320e+02 5.7710424632e+02 0.0000000000e+00 0.0000e+00 1.0000e+00
       22  1    1    2    0    0 -1.6317236320e+03 -1.5616495812e+03 -1.9365248974e+03 2.9751302668e+03 0.0000000000e+00 0.0000e+00 -1.0000e+00
</event>
<event>
 6      1 +1.4834189e-01 1.00626200e+04 7.81653100e-03 6.93495800e-02
  1000022 -1    0    0    0    0 +0.0000000000e+00 +0.0000000000e+00 +4.4721471353e+01 1.0000100000e+04 1.0000000000e+04 0.0000e+00 -1.0000e+00
  1000022 -1    0    0    0    0 -0.0000000000e+00 -0.0000000000e+00 -4.4721471353e+01 1.0000100000e+04 1.0000000000e+04 0.0000e+00 -1.0000e+00
      -24  1    1    2    0    0 -2.8906221906e+03 -7.6909144710e+03 -1.7277778644e+03 8.3962760239e+03 7.9829010000e+01 0.0000e+00 -1.0000e+00
       24  1    1    2    0    0 +3.1035972160e+03 +9.3051437685e+03 +1.4693588609e+03 9.9188408781e+03 7.9829010000e+01 0.0000e+00 -1.0000e+00
       22  1    1    2    0    0 +4.9508029584e+00 +1.7880956862e+01 +2.6650928985e+00 1.8744113433e+01 0.0000000000e+00 0.0000e+00 -1.0000e+00
       22  1    1    2    0    0 -2.1792582834e+02 -1.6321102543e+03 +2.5575391059e+02 1.6663389846e+03 0.0000000000e+00 0.0000e+00 -1.0000e+00
</event>
<event>
 6      1 +1.4834189e-01 1.05274800e+04 7.81653100e-03 6.90782600e-02
  1000022 -1    0    0    0    0 +0.0000000000e+00 +0.0000000000e+00 +4.4721471353e+01 1.0000100000e+04 1.0000000000e+04 0.0000e+00 -1.0000e+00
  1000022 -1    0    0    0    0 -0.0000000000e+00 -0.0000000000e+00 -4.4721471353e+01 1.0000100000e+04 1.0000000000e+04 0.0000e+00 -1.0000e+00
      -24  1    1    2    0    0 +2.2206489035e+02 -1.9569483289e+02 -8.6138752704e+01 3.1843655365e+02 7.9829010000e+01 0.0000e+00 1.0000e+00
       24  1    1    2    0    0 -5.7411404365e+03 +2.1510279918e+03 -2.0084185036e+03 6.4519557104e+03 7.9829010000e+01 0.0000e+00 -1.0000e+00
       22  1    1    2    0    0 +6.2500706149e+03 -5.7265104377e+03 +3.4560924203e+03 9.1542820200e+03 0.0000000000e+00 0.0000e+00 -1.0000e+00
       22  1    1    2    0    0 -7.3099506874e+02 +3.7711772787e+03 -1.3615351640e+03 4.0755257159e+03 0.0000000000e+00 0.0000e+00 -1.0000e+00
</event>
<event>
 6      1 +1.4834189e-01 1.00443200e+04 7.81653100e-03 6.93605600e-02
  1000022 -1    0    0    0    0 +0.0000000000e+00 +0.0000000000e+00 +4.4721471353e+01 1.0000100000e+04 1.0000000000e+04 0.0000e+00 -1.0000e+00
  1000022 -1    0    0    0    0 -0.0000000000e+00 -0.0000000000e+00 -4.4721471353e+01 1.0000100000e+04 1.0000000000e+04 0.0000e+00 -1.0000e+00
      -24  1    1    2    0    0 -9.5096638046e+03 -2.0826449300e+03 +1.6164634599e+03 9.8686596034e+03 7.9829010000e+01 0.0000e+00 1.0000e+00
       24  1    1    2    0    0 +2.9437192336e+03 +8.9652482319e+02 -5.9996448929e+02 3.1361711917e+03 7.9829010000e+01 0.0000e+00 1.0000e+00
       22  1    1    2    0    0 +6.6393790194e+03 +1.2802935985e+03 -8.8768180525e+02 6.8197129301e+03 0.0000000000e+00 0.0000e+00 1.0000e+00
       22  1    1    2    0    0 -7.3434448418e+01 -9.4173491692e+01 -1.2881716537e+02 1.7565627471e+02 0.0000000000e+00 0.0000e+00 1.0000e+00
</event>
<event>
 6      1 +1.4834189e-01 1.02149200e+04 7.81653100e-03 6.92591000e-02
  1000022 -1    0    0    0    0 +0.0000000000e+00 +0.0000000000e+00 +4.4721471353e+01 1.0000100000e+04 1.0000000000e+04 0.0000e+00 1.0000e+00
  1000022 -1    0    0    0    0 -0.0000000000e+00 -0.0000000000e+00 -4.4721471353e+01 1.0000100000e+04 1.0000000000e+04 0.0000e+00 1.0000e+00
      -24  1    1    2    0    0 +2.9322843576e+03 -5.0392844443e+03 +7.3298418477e+03 9.3661963169e+03 7.9829010000e+01 0.0000e+00 -1.0000e+00
       24  1    1    2    0    0 -8.5379364811e+02 +3.4478798216e+03 -6.6727423485e+03 7.5596760498e+03 7.9829010000e+01 0.0000e+00 -1.0000e+00
       22  1    1    2    0    0 -1.8765266596e+02 +3.7607805402e+01 +3.7283284284e+02 4.1908495412e+02 0.0000000000e+00 0.0000e+00 -1.0000e+00
       22  1    1    2    0    0 -1.8908380435e+03 +1.5537968173e+03 -1.0299323420e+03 2.6552426792e+03 0.0000000000e+00 0.0000e+00 1.0000e+00
</event>
<event>
 6      1 +1.4834189e-01 1.00094500e+04 7.81653100e-03 6.93815500e-02
  1000022 -1    0    0    0    0 +0.0000000000e+00 +0.0000000000e+00 +4.4721471353e+01 1.0000100000e+04 1.0000000000e+04 0.0000e+00 -1.0000e+00
  1000022 -1    0    0    0    0 -0.0000000000e+00 -0.0000000000e+00 -4.4721471353e+01 1.0000100000e+04 1.0000000000e+04 0.0000e+00 -1.0000e+00
      -24  1    1    2    0    0 -9.3414981583e+02 +6.5929386395e+03 +7.4477670439e+03 9.9907498414e+03 7.9829010000e+01 0.0000e+00 1.0000e+00
       24  1    1    2    0    0 +9.3854832145e+02 -6.3466865405e+03 -7.2146490281e+03 9.6549902260e+03 7.9829010000e+01 0.0000e+00 1.0000e+00
       22  1    1    2    0    0 -3.2032384724e+01 -7.1688141551e+01 -2.7202425839e+01 8.3097745347e+01 0.0000000000e+00 0.0000e+00 1.0000e+00
       22  1    1    2    0    0 +2.7633879106e+01 -1.7456395743e+02 -2.0591558992e+02 2.7136218727e+02 0.0000000000e+00 0.0000e+00 1.0000e+00
</event>
<event>
 6      1 +1.4834189e-01 1.00386900e+04 7.81653100e-03 6.93639400e-02
  1000022 -1    0    0    0    0 +0.0000000000e+00 +0.0000000000e+00 +4.4721471353e+01 1.0000100000e+04 1.0000000000e+04 0.0000e+00 1.0000e+00
  1000022 -1    0    0    0    0 -0.0000000000e+00 -0.0000000000e+00 -4.4721471353e+01 1.0000100000e+04 1.0000000000e+04 0.0000e+00 1.0000e+00
      -24  1    1    2    0    0 -9.6671517759e+03 +2.3618811356e+03 -4.3922309803e+02 9.9615056873e+03 7.9829010000e+01 0.0000e+00 -1.0000e+00
       24  1    1    2    0    0 +4.6202811723e+02 -2.3620612653e+01 +7.9216825466e+01 4.7610491567e+02 7.9829010000e+01 0.0000e+00 1.0000e+00
       22  1    1    2    0    0 +8.8517950755e+03 -2.0288564124e+03 +2.7625774756e+02 9.0855298549e+03 0.0000000000e+00 0.0000e+00 -1.0000e+00
       22  1    1    2    0    0 +3.5332858322e+02 -3.0940411050e+02 +8.3748524998e+01 4.7705954215e+02 0.0000000000e+00 0.0000e+00 -1.0000e+00
</event>
<event>
 6      1 +1.4834189e-01 1.00111300e+04 7.81653100e-03 6.93805400e-02
  1000022 -1    0    0    0    0 +0.0000000000e+00 +0.0000000000e+00 +4.4721471353e+01 1.0000100000e+04 1.0000000000e+04 0.0000e+00 1.0000e+00
  1000022 -1    0    0    0    0 -0.0000000000e+00 -0.0000000000e+00 -4.4721471353e+01 1.0000100000e+04 1.0000000000e+04 0.0000e+00 1.0000e+00
      -24  1    1    2    0    0 +4.5076421406e+02 +9.5528447164e+01 -5.0712847968e+02 6.8983043325e+02 7.9829010000e+01 0.0000e+00 1.0000e+00
       24  1    1    2    0    0 -4.7987919667e+03 -9.7520611066e+02 +8.6504974708e+03 9.9406695178e+03 7.9829010000e+01 0.0000e+00 -1.0000e+00
       22  1    1    2    0    0 +4.3655501660e+03 +8.8654301493e+02 -8.1879589688e+03 9.3213013493e+03 0.0000000000e+00 0.0000e+00 -1.0000e+00
       22  1    1    2    0    0 -1.7522413295e+01 -6.8653514305e+00 +4.4589977716e+01 4.8398699679e+01 0.0000000000e+00 0.0000e+00 -1.0000e+00
</event>
<event>
 6      1 +1.4834189e-01 1.04232500e+04 7.81653100e-03 6.91378500e-02
  1000022 -1    0    0    0    0 +0.0000000000e+00 +0.0000000000e+00 +4.4721471353e+01 1.0000100000e+04 1.0000000000e+04 0.0000e+00 1.0000e+00
  1000022 -1    0    0    0    0 -0.0000000000e+00 -0.0000000000e+00 -4.4721471353e+01 1.0000100000e+04 1.0000000000e+04 0.0000e+00 1.0000e+00
      -24  1    1    2    0    0 -1.8299105657e+03 +2.1098311282e+03 -1.7299882336e+03 3.2862124136e+03 7.9829010000e+01 0.0000e+00 -1.0000e+00
       24  1    1    2    0    0 +1.5330558921e+03 -1.2276258025e+03 +2.9740580126e+03 3.5649290613e+03 7.9829010000e+01 0.0000e+00 -1.0000e+00
       22  1    1    2    0    0 +3.7210498622e+03 -5.6826063990e+03 +9.4782215785e+02 6.8583230024e+03 0.0000000000e+00 0.0000e+00 -1.0000e+00
       22  1    1    2    0    0 -3.4241951885e+03 +4.8004010732e+03 -2.1918919368e+03 6.2907355226e+03 0.0000000000e+00 0.0000e+00 -1.0000e+00
</event>
<event>
 6      1 +1.4834189e-01 1.00001700e+04 7.81653100e-03 6.93871500e-02
  1000022 -1    0    0    0    0 +0.0000000000e+00 +0.0000000000e+00 +4.4721471353e+01 1.0000100000e+04 1.0000000000e+04 0.0000e+00 -1.0000e+00
  1000022 -1    0    0    0    0 -0.0000000000e+00 -0.0000000000e+00 -4.4721471353e+01 1.0000100000e+04 1.0000000000e+04 0.0000e+00 -1.0000e+00
      -24  1    1    2    0    0 +7.5944825016e+03 +4.1112876329e+03 +5.0127618474e+03 9.9856399132e+03 7.9829010000e+01 0.0000e+00 1.0000e+00
       24  1    1    2    0    0 -7.1583420511e+03 -3.8701619126e+03 -4.7317040141e+03 9.4135758189e+03 7.9829010000e+01 0.0000e+00 1.0000e+00
       22  1    1    2    0    0 -4.4689092598e+02 -2.4531876553e+02 -2.8988842204e+02 5.8645382910e+02 0.0000000000e+00 0.0000e+00 1.0000e+00
       22  1    1    2    0    0 +1.0750475480e+01 +4.1930452790e+00 +8.8305887741e+00 1.4530438736e+01 0.0000000000e+00 0.0000e+00 -1.0000e+00
</event>
<event>
 6      1 +1.4834189e-01 1.00114600e+04 7.81653100e-03 6.93803400e-02
  1000022 -1    0    0    0    0 +0.0000000000e+00 +0.0000000000e+00 +4.4721471353e+01 1.0000100000e+04 1.0000000000e+04 0.0000e+00 1.0000e+00
  1000022 -1    0    0    0    0 -0.0000000000e+00 -0.0000000000e+00 -4.4721471353e+01 1.0000100000e+04 1.0000000000e+04 0.0000e+00 1.0000e+00
      -24  1    1    2    0    0 +4.6798014557e+02 -5.1903105800e+02 -1.4078697929e+02 7.1735089056e+02 7.9829010000e+01 0.0000e+00 -1.0000e+00
       24  1    1    2    0    0 -6.2540365289e+03 +6.8159596296e+03 +3.7121384362e+03 9.9677792420e+03 7.9829010000e+01 0.0000e+00 -1.0000e+00
       22  1    1    2    0    0 +5.7632966644e+03 -6.3315046876e+03 -3.5573915846e+03 9.2713847368e+03 0.0000000000e+00 0.0000e+00 -1.0000e+00
       22  1    1    2    0    0 +2.2759718967e+01 +3.4576116003e+01 -1.3959872324e+01 4.3685130658e+01 0.0000000000e+00 0.0000e+00 -1.0000e+00
</event>
<event>
 6      1 +1.4834189e-01 1.00086200e+04 7.81653100e-03 6.93820500e-02
  1000022 -1    0    0    0    0 +0.0000000000e+00 +0.0000000000e+00 +4.4721471353e+01 1.0000100000e+04 1.0000000000e+04 0.0000e+00 1.0000e+00
  1000022 -1    0    0    0    0 -0.0000000000e+00 -0.0000000000e+00 -4.4721471353e+01 1.0000100000e+04 1.0000000000e+04 0.0000e+00 1.0000e+00
      -24  1    1    2    0    0 +7.7784780802e+02 -3.0279722366e+03 +9.4895572530e+03 9.9915830881e+03 7.9829010000e+01 0.0000e+00 -1.0000e+00
       24  1    1    2    0    0 -5.9416357352e+02 +2.2956773975e+03 -6.4799772803e+03 6.9006987537e+03 7.9829010000e+01 0.0000e+00 -1.0000e+00
       22  1    1    2    0    0 -9.8247101477e+00 +2.2627067971e+01 -2.4684706812e+01 3.4897620046e+01 0.0000000000e+00 0.0000e+00 -1.0000e+00
       22  1    1    2    0    0 -1.7385952435e+02 +7.0966777108e+02 -2.9848952659e+03 3.0730205382e+03 0.0000000000e+00 0.0000e+00 -1.0000e+00
</event>
<event>
 6      1 +1.4834189e-01 9.83084000e+03 7.81653100e-03 6.94904300e-02
  1000022 -1    0    0    0    0 +0.0000000000e+00 +0.0000000000e+00 +4.4721471353e+01 1.0000100000e+04 1.0000000000e+04 0.0000e+00 -1.0000e+00
  1000022 -1    0    0    0    0 -0.0000000000e+00 -0.0000000000e+00 -4.4721471353e+01 1.0000100000e+04 1.0000000000e+04 0.0000e+00 -1.0000e+00
      -24  1    1    2    0    0 -1.4614130630e+03 -9.6855164857e+03 +1.2112821590e+03 9.8700828201e+03 7.9829010000e+01 0.0000e+00 -1.0000e+00
       24  1    1    2    0    0 -2.7158052848e+02 +1.4950704799e+02 -1.0249648689e+02 3.3613470739e+02 7.9829010000e+01 0.0000e+00 1.0000e+00
       22  1    1    2    0    0 +1.7355914928e+03 +9.5549684114e+03 -1.1112406324e+03 9.7746895048e+03 0.0000000000e+00 0.0000e+00 -1.0000e+00
       22  1    1    2    0    0 -2.5979013521e+00 -1.8958973681e+01 +2.4549602985e+00 1.9292967749e+01 0.0000000000e+00 0.0000e+00 -1.0000e+00
</event>
<event>
 6      1 +1.4834189e-01 1.00014600e+04 7.81653100e-03 6.93863700e-02
  1000022 -1    0    0    0    0 +0.0000000000e+00 +0.0000000000e+00 +4.4721471353e+01 1.0000100000e+04 1.0000000000e+04 0.0000e+00 1.0000e+00
  1000022 -1    0    0    0    0 -0.0000000000e+00 -0.0000000000e+00 -4.4721471353e+01 1.0000100000e+04 1.0000000000e+04 0.0000e+00 1.0000e+00
      -24  1    1    2    0    0 +5.0664389201e+03 -2.6458297263e+03 +8.1237549494e+03 9.9333270066e+03 7.9829010000e+01 0.0000e+00 -1.0000e+00
       24  1    1    2    0    0 -5.0190024038e+03 +2.6034837821e+03 -8.0525621504e+03 9.8396464769e+03 7.9829010000e+01 0.0000e+00 -1.0000e+00
       22  1    1    2    0    0 +3.3073880312e+01 +7.2073966856e-01 +5.9561106805e+01 6.8131684761e+01 0.0000000000e+00 0.0000e+00 -1.0000e+00
       22  1    1    2    0    0 -8.0510396641e+01 +4.1625204610e+01 -1.3075390573e+02 1.5909483175e+02 0.0000000000e+00 0.0000e+00 -1.0000e+00
</event>
<event>
 6      1 +1.4834189e-01 1.00004400e+04 7.81653100e-03 6.93869900e-02
  1000022 -1    0    0    0    0 +0.0000000000e+00 +0.0000000000e+00 +4.4721471353e+01 1.0000100000e+04 1.0000000000e+04 0.0000e+00 -1.0000e+00
  1000022 -1    0    0    0    0 -0.0000000000e+00 -0.0000000000e+00 -4.4721471353e+01 1.0000100000e+04 1.0000000000e+04 0.0000e+00 -1.0000e+00
      -24  1    1    2    0    0 +8.5964554974e+03 +3.8739853915e+03 -3.1650292100e+03 9.9463859016e+03 7.9829010000e+01 0.0000e+00 -1.0000e+00
       24  1    1    2    0    0 -8.5089005920e+03 -3.8281562045e+03 +3.1312275276e+03 9.8421099217e+03 7.9829010000e+01 0.0000e+00 -1.0000e+00
       22  1    1    2    0    0 +4.5875282934e+01 +1.4440842478e+01 -2.4666075166e+01 5.4050853645e+01 0.0000000000e+00 0.0000e+00 1.0000e+00
       22  1    1    2    0    0 -1.3343018829e+02 -6.0270029504e+01 +5.8467757580e+01 1.5765332309e+02 0.0000000000e+00 0.0000e+00 1.0000e+00
</event>
<event>
 6      1 +1.4834189e-01 1.00029300e+04 7.81653100e-03 6.93854800e-02
  1000022 -1    0    0    0    0 +0.0000000000e+00 +0.0000000000e+00 +4.4721471353e+01 1.0000100000e+04 1.0000000000e+04 0.0000e+00 -1.0000e+00
  1000022 -1    0    0    0    0 -0.0000000000e+00 -0.0000000000e+00 -4.4721471353e+01 1.0000100000e+04 1.0000000000e+04 0.0000e+00 -1.0000e+00
      -24  1    1    2    0    0 -2.8569733473e+03 -5.2694189015e+02 +2.5224338735e+03 3.8482476246e+03 7.9829010000e+01 0.0000e+00 0.0000e+00
       24  1    1    2    0    0 +7.4678514748e+03 +1.4508780672e+03 -6.4857645495e+03 9.9972679907e+03 7.9829010000e+01 0.0000e+00 -1.0000e+00
       22  1    1    2    0    0 -4.6079912486e+03 -9.1400817386e+02 +3.9588739657e+03 6.1434255400e+03 0.0000000000e+00 0.0000e+00 -1.0000e+00
       22  1    1    2    0    0 -2.8868788380e+00 -9.9280032165e+00 +4.4567103232e+00 1.1258844710e+01 0.0000000000e+00 0.0000e+00 1.0000e+00
</event>
<event>
 6      1 +1.4834189e-01 1.03349600e+04 7.81653100e-03 6.91888800e-02
  1000022 -1    0    0    0    0 +0.0000000000e+00 +0.0000000000e+00 +4.4721471353e+01 1.0000100000e+04 1.0000000000e+04 0.0000e+00 1.0000e+00
  1000022 -1    0    0    0    0 -0.0000000000e+00 -0.0000000000e+00 -4.4721471353e+01 1.0000100000e+04 1.0000000000e+04 0.0000e+00 1.0000e+00
      -24  1    1    2    0    0 +1.1346492836e+03 -2.0009656648e+02 -7.6742820539e+02 1.3866457205e+03 7.9829010000e+01 0.0000e+00 -1.0000e+00
       24  1    1    2    0    0 -8.7759013360e+03 +7.1267545783e+02 +3.9857381340e+03 9.6652383163e+03 7.9829010000e+01 0.0000e+00 -1.0000e+00
       22  1    1    2    0    0 +5.9799707104e+03 -1.4270310851e+03 -3.4303686202e+03 7.0401630866e+03 0.0000000000e+00 0.0000e+00 -1.0000e+00
       22  1    1    2    0    0 +1.6612813419e+03 +9.1445219380e+02 +2.1205869158e+02 1.9081528766e+03 0.0000000000e+00 0.0000e+00 -1.0000e+00
</event>
<event>
 6      1 +1.4834189e-01 1.02904300e+04 7.81653100e-03 6.92148200e-02
  1000022 -1    0    0    0    0 +0.0000000000e+00 +0.0000000000e+00 +4.4721471353e+01 1.0000100000e+04 1.0000000000e+04 0.0000e+00 -1.0000e+00
  1000022 -1    0    0    0    0 -0.0000000000e+00 -0.0000000000e+00 -4.4721471353e+01 1.0000100000e+04 1.0000000000e+04 0.0000e+00 -1.0000e+00
      -24  1    1    2    0    0 -4.6968903842e+02 +1.2428364192e+03 +1.9424083808e+03 2.3546917306e+03 7.9829010000e+01 0.0000e+00 -1.0000e+00
       24  1    1    2    0    0 +2.2487838231e+03 +7.2304520322e+02 -9.1027057020e+03 9.4045439452e+03 7.9829010000e+01 0.0000e+00 -1.0000e+00
       22  1    1    2    0    0 -1.8334367466e+03 -1.9927667960e+03 +7.4594434857e+03 7.9357360668e+03 0.0000000000e+00 0.0000e+00 -1.0000e+00
       22  1    1    2    0    0 +5.4341961949e+01 +2.6885173548e+01 -2.9914616443e+02 3.0522825734e+02 0.0000000000e+00 0.0000e+00 1.0000e+00
</event>
<event>
 6      1 +1.4834189e-01 1.03348900e+04 7.81653100e-03 6.91889300e-02
  1000022 -1    0    0    0    0 +0.0000000000e+00 +0.0000000000e+00 +4.4721471353e+01 1.0000100000e+04 1.0000000000e+04 0.0000e+00 1.0000e+00
  1000022 -1    0    0    0    0 -0.0000000000e+00 -0.0000000000e+00 -4.4721471353e+01 1.0000100000e+04 1.0000000000e+04 0.0000e+00 1.0000e+00
      -24  1    1    2    0    0 -5.9194174363e+03 -7.6028639496e+03 -7.5418003888e+02 9.6653092668e+03 7.9829010000e+01 0.0000e+00 -1.0000e+00
       24  1    1    2    0    0 +1.1442484367e+03 +9.6718073968e+02 +7.7529978254e+02 1.6888473856e+03 7.9829010000e+01 0.0000e+00 -1.0000e+00
       22  1    1    2    0    0 -2.1023352358e+01 +3.9663094446e+02 +6.3525539054e+02 7.4920457731e+02 0.0000000000e+00 0.0000e+00 -1.0000e+00
       22  1    1    2    0    0 +4.7961923520e+03 +6.2390522654e+03 -6.5637513420e+02 7.8968387703e+03 0.0000000000e+00 0.0000e+00 -1.0000e+00
</event>
<event>
 6      1 +1.4834189e-01 1.00051100e+04 7.81653100e-03 6.93841700e-02
  1000022 -1    0    0    0    0 +0.0000000000e+00 +0.0000000000e+00 +4.4721471353e+01 1.0000100000e+04 1.0000000000e+04 0.0000e+00 -1.0000e+00
  1000022 -1    0    0    0    0 -0.0000000000e+00 -0.0000000000e+00 -4.4721471353e+01 1.0000100000e+04 1.0000000000e+04 0.0000e+00 -1.0000e+00
      -24  1    1    2    0    0 -7.1281625591e+03 -3.7259444503e+03 +7.5555659678e+02 8.0790223392e+03 7.9829010000e+01 0.0000e+00 -1.0000e+00
       24  1    1    2    0    0 +8.2446093616e+03 +4.0971158281e+03 -7.8100932877e+02 9.2399291056e+03 7.9829010000e+01 0.0000e+00 -1.0000e+00
       22  1    1    2    0    0 +6.7099705773e+02 +3.4136411012e+02 -5.9151455740e+01 7.5515918976e+02 0.0000000000e+00 0.0000e+00 1.0000e+00
       22  1    1    2    0    0 -1.7874438602e+03 -7.1253548785e+02 +8.4604187733e+01 1.9260893654e+03 0.0000000000e+00 0.0000e+00 1.0000e+00
</event>
<event>
 6      1 +1.4834189e-01 1.00465600e+04 7.81653100e-03 6.93592200e-02
  1000022 -1    0    0    0    0 +0.0000000000e+00 +0.0000000000e+00 +4.4721471353e+01 1.0000100000e+04 1.0000000000e+04 0.0000e+00 -1.0000e+00
  1000022 -1    0    0    0    0 -0.0000000000e+00 -0.0000000000e+00 -4.4721471353e+01 1.0000100000e+04 1.0000000000e+04 0.0000e+00 -1.0000e+00
      -24  1    1    2    0    0 -6.2770018563e+03 -6.9345496811e+03 -3.3524960233e+03 9.9365151759e+03 7.9829010000e+01 0.0000e+00 1.0000e+00
       24  1    1    2    0    0 +6.1611269376e+03 +6.8999217683e+03 +3.0986584079e+03 9.7558424623e+03 7.9829010000e+01 0.0000e+00 1.0000e+00
       22  1    1    2    0    0 -1.4727851532e+01 -8.4400787399e+00 -2.2920431211e+00 1.7128864573e+01 0.0000000000e+00 0.0000e+00 1.0000e+00
       22  1    1    2    0    0 +1.3060277030e+02 +4.3067991478e+01 +2.5612965852e+02 2.9071349723e+02 0.0000000000e+00 0.0000e+00 1.0000e+00
</event>
<event>
 6      1 +1.4834189e-01 1.00105800e+04 7.81653100e-03 6.93808700e-02
  1000022 -1    0    0    0    0 +0.0000000000e+00 +0.0000000000e+00 +4.4721471353e+01 1.0000100000e+04 1.0000000000e+04 0.0000e+00 1.0000e+00
  1000022 -1    0    0    0    0 -0.0000000000e+00 -0.0000000000e+00 -4.4721471353e+01 1.0000100000e+04 1.0000000000e+04 0.0000e+00 1.0000e+00
      -24  1    1    2    0    0 +3.8776278416e+03 +7.3824816273e+03 -5.3020929684e+03 9.8820845560e+03 7.9829010000e+01 0.0000e+00 1.0000e+00
       24  1    1    2    0    0 -3.9698245494e+03 -7.4555894369e+03 +5.3329986155e+03 9.9896230013e+03 7.9829010000e+01 0.0000e+00 1.0000e+00
       22  1    1    2    0    0 +7.5691731387e+01 +4.1185857978e+01 -9.5737999469e+00 8.6701619034e+01 0.0000000000e+00 0.0000e+00 -1.0000e+00
       22  1    1    2    0    0 +1.6504976416e+01 +3.1921951655e+01 -2.1331847076e+01 4.1790823677e+01 0.0000000000e+00 0.0000e+00 -1.0000e+00
</event>
<event>
 6      1 +1.4834189e-01 1.00001400e+04 7.81653100e-03 6.93871700e-02
  1000022 -1    0    0    0    0 +0.0000000000e+00 +0.0000000000e+00 +4.4721471353e+01 1.0000100000e+04 1.0000000000e+04 0.0000e+00 -1.0000e+00
  1000022 -1    0    0    0    0 -0.0000000000e+00 -0.0000000000e+00 -4.4721471353e+01 1.0000100000e+04 1.0000000000e+04 0.0000e+00 -1.0000e+00
      -24  1    1    2    0    0 -1.9476164685e+03 -5.7421091735e+03 +1.4076162830e+03 6.2251734065e+03 7.9829010000e+01 0.0000e+00 -1.0000e+00
       24  1    1    2    0    0 +3.2613064135e+03 +9.1488892422e+03 -2.2777520230e+03 9.9766136959e+03 7.9829010000e+01 0.0000e+00 -1.0000e+00
       22  1    1    2    0    0 -1.3136412585e+03 -3.4276788783e+03 +8.8076260727e+02 3.7749673666e+03 0.0000000000e+00 0.0000e+00 -1.0000e+00
       22  1    1    2    0    0 -4.8686447780e-02 +2.0898809686e+01 -1.0626867305e+01 2.3445531032e+01 0.0000000000e+00 0.0000e+00 -1.0000e+00
</event>
<event>
 6      1 +1.4834189e-01 1.00003100e+04 7.81653100e-03 6.93870700e-02
  1000022 -1    0    0    0    0 +0.0000000000e+00 +0.0000000000e+00 +4.4721471353e+01 1.0000100000e+04 1.0000000000e+04 0.0000e+00 1.0000e+00
  1000022 -1    0    0    0    0 -0.0000000000e+00 -0.0000000000e+00 -4.4721471353e+01 1.0000100000e+04 1.0000000000e+04 0.0000e+00 1.0000e+00
      -24  1    1    2    0    0 +2.5486746888e+02 -3.2177146811e+03 +9.4345981094e+03 9.9717931864e+03 7.9829010000e+01 0.0000e+00 1.0000e+00
       24  1    1    2    0    0 -2.4891256760e+02 +3.1714829856e+03 -9.3343311620e+03 9.8618645654e+03 7.9829010000e+01 0.0000e+00 1.0000e+00
       22  1    1    2    0    0 -1.0511042823e+01 +5.5529870768e+01 -1.2638546224e+02 1.3844613983e+02 0.0000000000e+00 0.0000e+00 1.0000e+00
       22  1    1    2    0    0 +4.5561415384e+00 -9.2981752035e+00 +2.6118514821e+01 2.8096108347e+01 0.0000000000e+00 0.0000e+00 -1.0000e+00
</event>
<event>
 6      1 +1.4834189e-01 1.00006600e+04 7.81653100e-03 6.93868500e-02
  1000022 -1    0    0    0    0 +0.0000000000e+00 +0.0000000000e+00 +4.4721471353e+01 1.0000100000e+04 1.0000000000e+04 0.0000e+00 1.0000e+00
  1000022 -1    0    0    0    0 -0.0000000000e+00 -0.0000000000e+00 -4.4721471353e+01 1.0000100000e+04 1.0000000000e+04 0.0000e+00 1.0000e+00
      -24  1    1    2    0    0 -4.1707547357e+03 +4.7715383801e+03 +2.7456919394e+03 6.9070956613e+03 7.9829010000e+01 0.0000e+00 -1.0000e+00
       24  1    1    2    0    0 +5.6844483302e+03 -7.0141549158e+03 -3.9436196256e+03 9.8524022666e+03 7.9829010000e+01 0.0000e+00 -1.0000e+00
       22  1    1    2    0    0 +1.0015254833e+02 -1.0775475039e+02 -2.6608613877e+00 1.4713496984e+02 0.0000000000e+00 0.0000e+00 1.0000e+00
       22  1    1    2    0    0 -1.6138461429e+03 +2.3503712861e+03 +1.2005885476e+03 3.0935671022e+03 0.0000000000e+00 0.0000e+00 -1.0000e+00
</event>
<event>
 6      1 +1.4834189e-01 1.00269500e+04 7.81653100e-03 6.93710100e-02
  1000022 -1    0    0    0    0 +0.0000000000e+00 +0.0000000000e+00 +4.4721471353e+01 1.0000100000e+04 1.0000000000e+04 0.0000e+00 -1.0000e+00
  1000022 -1    0    0    0    0 -0.0000000000e+00 -0.0000000000e+00 -4.4721471353e+01 1.0000100000e+04 1.0000000000e+04 0.0000e+00 -1.0000e+00
      -24  1    1    2    0    0 +3.1453346898e+03 +9.1822035559e+03 +1.3024247853e+03 9.7932974755e+03 7.9829010000e+01 0.0000e+00 1.0000e+00
       24  1    1    2    0    0 -3.0016823832e+03 -9.1998118385e+03 -1.3620410117e+03 9.7728278088e+03 7.9829010000e+01 0.0000e+00 1.0000e+00
       22  1    1    2    0    0 -2.0163462273e+02 -1.5083923586e+02 +3.4190504944e+01 2.5412199194e+02 0.0000000000e+00 0.0000e+00 -1.0000e+00
       22  1    1    2    0    0 +5.7982316132e+01 +1.6844751845e+02 +2.5425721381e+01 1.7995272369e+02 0.0000000000e+00 0.0000e+00 1.0000e+00
</event>
<event>
 6      1 +1.4834189e-01 1.00004600e+04 7.81653100e-03 6.93869800e-02
  1000022 -1    0    0    0    0 +0.0000000000e+00 +0.0000000000e+00 +4.4721471353e+01 1.0000100000e+04 1.0000000000e+04 0.0000e+00 1.0000e+00
  1000022 -1    0    0    0    0 -0.0000000000e+00 -0.0000000000e+00 -4.4721471353e+01 1.0000100000e+04 1.0000000000e+04 0.0000e+00 1.0000e+00
      -24  1    1    2    0    0 +9.1320628214e+03 -3.6218058265e+03 +1.6094829449e+03 9.9553431302e+03 7.9829010000e+01 0.0000e+00 1.0000e+00
       24  1    1    2    0    0 -9.0841544770e+03 +3.6118026539e+03 -1.6103054251e+03 9.9078977188e+03 7.9829010000e+01 0.0000e+00 1.0000e+00
       22  1    1    2    0    0 +3.7642470946e+01 -2.0960446606e+01 +1.3380708188e+01 4.5114734760e+01 0.0000000000e+00 0.0000e+00 1.0000e+00
       22  1    1    2    0    0 -8.5550815279e+01 +3.0963619172e+01 -1.2558228009e+01 9.1844416258e+01 0.0000000000e+00 0.0000e+00 1.0000e+00
</event>
<event>
 6      1 +1.4834189e-01 1.00025900e+04 7.81653100e-03 6.93856900e-02
  1000022 -1    0    0    0    0 +0.0000000000e+00 +0.0000000000e+00 +4.4721471353e+01 1.0000100000e+04 1.0000000000e+04 0.0000e+00 -1.0000e+00
  1000022 -1    0    0    0    0 -0.0000000000e+00 -0.0000000000e+00 -4.4721471353e+01 1.0000100000e+04 1.0000000000e+04 0.0000e+00 -1.0000e+00
      -24  1    1    2    0    0 -5.9351078696e+03 -7.9207400810e+03 -1.2547762707e+03 9.9771972525e+03 7.9829010000e+01 0.0000e+00 -1.0000e+00
       24  1    1    2    0    0 +5.9401708581e+03 +7.9420134820e+03 +1.2588156661e+03 9.9976095906e+03 7.9829010000e+01 0.0000e+00 -1.0000e+00
       22  1    1    2    0    0 -8.5070004326e+00 -1.0267518785e+01 -5.5208874232e-01 1.3345253851e+01 0.0000000000e+00 0.0000e+00 -1.0000e+00
       22  1    1    2    0    0 +3.4440118665e+00 -1.1005882250e+01 -3.4873066499e+00 1.2047903116e+01 0.0000000000e+00 0.0000e+00 -1.0000e+00
</event>
<event>
 6      1 +1.4834189e-01 1.00047300e+04 7.81653100e-03 6.93844000e-02
  1000022 -1    0    0    0    0 +0.0000000000e+00 +0.0000000000e+00 +4.4721471353e+01 1.0000100000e+04 1.0000000000e+04 0.0000e+00 1.0000e+00
  1000022 -1    0    0    0    0 -0.0000000000e+00 -0.0000000000e+00 -4.4721471353e+01 1.0000100000e+04 1.0000000000e+04 0.0000e+00 1.0000e+00
      -24  1    1    2    0    0 +1.4386172068e+03 +1.9676606487e+02 -5.1336134709e+03 5.3356064596e+03 7.9829010000e+01 0.0000e+00 1.0000e+00
       24  1    1    2    0    0 -2.7021758225e+03 -5.6324673935e+02 +9.5428589565e+03 9.9343611169e+03 7.9829010000e+01 0.0000e+00 1.0000e+00
       22  1    1    2    0    0 -1.1555663746e+01 +3.4152975488e+01 +6.0428436406e+01 7.0367286617e+01 0.0000000000e+00 0.0000e+00 -1.0000e+00
       22  1    1    2    0    0 +1.2751142795e+03 +3.3232769899e+02 -4.4696739221e+03 4.6598651370e+03 0.0000000000e+00 0.0000e+00 1.0000e+00
</event>
<event>
 6      1 +1.4834189e-01 1.02698200e+04 7.81653100e-03 6.92268600e-02
  1000022 -1    0    0    0    0 +0.0000000000e+00 +0.0000000000e+00 +4.4721471353e+01 1.0000100000e+04 1.0000000000e+04 0.0000e+00 -1.0000e+00
  1000022 -1    0    0    0    0 -0.0000000000e+00 -0.0000000000e+00 -4.4721471353e+01 1.0000100000e+04 1.0000000000e+04 0.0000e+00 -1.0000e+00
      -24  1    1    2    0    0 +3.1565685230e+03 +1.5343287059e+03 -1.1027405963e+03 3.6797416908e+03 7.9829010000e+01 0.0000e+00 1.0000e+00
       24  1    1    2    0    0 -8.0794069493e+03 -7.1949300687e+01 +1.9762078407e+03 8.3182788758e+03 7.9829010000e+01 0.0000e+00 -1.0000e+00
       22  1    1    2    0    0 +6.1171732422e+03 -2.0473331957e+03 -1.3482489589e+03 6.5900801926e+03 0.0000000000e+00 0.0000e+00 -1.0000e+00
       22  1    1    2    0    0 -1.1943348159e+03 +5.8495379057e+02 +4.7478171449e+02 1.4120992408e+03 0.0000000000e+00 0.0000e+00 -1.0000e+00
</event>
<event>
 6      1 +1.4834189e-01 1.00016900e+04 7.81653100e-03 6.93862400e-02
  1000022 -1    0    0    0    0 +0.0000000000e+00 +0.0000000000e+00 +4.4721471353e+01 1.0000100000e+04 1.0000000000e+04 0.0000e+00 1.0000e+00
  1000022 -1    0    0    0    0 -0.0000000000e+00 -0.0000000000e+00 -4.4721471353e+01 1.0000100000e+04 1.0000000000e+04 0.0000e+00 1.0000e+00
      -24  1    1    2    0    0 +1.1596573069e+03 +1.1380168796e+03 +1.5561141413e+03 2.2511666707e+03 7.9829010000e+01 0.0000e+00 0.0000e+00
       24  1    1    2    0    0 -4.7154559725e+03 -4.5708339829e+03 -6.5101335156e+03 9.2475001698e+03 7.9829010000e+01 0.0000e+00 1.0000e+00
       22  1    1    2    0    0 -3.4106320131e+02 -3.1839007909e+02 -5.9253757793e+02 7.5418640336e+02 0.0000000000e+00 0.0000e+00 -1.0000e+00
       22  1    1    2    0    0 +3.8968618670e+03 +3.7512071824e+03 +5.5465569522e+03 7.7473467561e+03 0.0000000000e+00 0.0000e+00 1.0000e+00
</event>
<event>
 6      1 +1.4834189e-01 1.00161100e+04 7.81653100e-03 6.93775400e-02
  1000022 -1    0    0    0    0 +0.0000000000e+00 +0.0000000000e+00 +4.4721471353e+01 1.0000100000e+04 1.0000000000e+04 0.0000e+00 -1.0000e+00
  1000022 -1    0    0    0    0 -0.0000000000e+00 -0.0000000000e+00 -4.4721471353e+01 1.0000100000e+04 1.0000000000e+04 0.0000e+00 -1.0000e+00
      -24  1    1    2    0    0 +3.0643773946e+03 +3.8478439649e+03 -8.6878877123e+03 9.9840912239e+03 7.9829010000e+01 0.0000e+00 1.0000e+00
       24  1    1    2    0    0 -1.8922513444e+03 -2.8138500003e+03 +5.7496190621e+03 6.6755418510e+03 7.9829010000e+01 0.0000e+00 1.0000e+00
       22  1    1    2    0    0 -1.1422372614e+03 -1.0457320312e+03 +2.9152690548e+03 3.3010687821e+03 0.0000000000e+00 0.0000e+00 -1.0000e+00
       22  1    1    2    0    0 -2.9888788835e+01 +1.1738066652e+01 +2.2999595403e+01 3.9498142937e+01 0.0000000000e+00 0.0000e+00 -1.0000e+00
</event>
<event>
 6      1 +1.4834189e-01 1.00176100e+04 7.81653100e-03 6.93766300e-02
  1000022 -1    0    0    0    0 +0.0000000000e+00 +0.0000000000e+00 +4.4721471353e+01 1.0000100000e+04 1.0000000000e+04 0.0000e+00 -1.0000e+00
  1000022 -1    0    0    0    0 -0.0000000000e+00 -0.0000000000e+00 -4.4721471353e+01 1.0000100000e+04 1.0000000000e+04 0.0000e+00 -1.0000e+00
      -24  1    1    2    0    0 -3.7131256519e+03 +6.5461231462e+03 +6.5495743352e+03 9.9770901066e+03 7.9829010000e+01 0.0000e+00 -1.0000e+00
       24  1    1    2    0    0 +3.2873186524e+03 -5.8305347891e+03 -5.7524704302e+03 8.8260347026e+03 7.9829010000e+01 0.0000e+00 -1.0000e+00
       22  1    1    2    0    0 -2.9939408201e+01 -2.5000303613e+01 +1.0980700363e+01 4.0521094810e+01 0.0000000000e+00 0.0000e+00 -1.0000e+00
       22  1    1    2    0    0 +4.5574640766e+02 -6.9058805344e+02 -8.0808460534e+02 1.1565540960e+03 0.0000000000e+00 0.0000e+00 1.0000e+00
</event>
<event>
 6      1 +1.4834189e-01 1.00223300e+04 7.81653100e-03 6.93737900e-02
  1000022 -1    0    0    0    0 +0.0000000000e+00 +0.0000000000e+00 +4.4721471353e+01 1.0000100000e+04 1.0000000000e+04 0.0000e+00 -1.0000e+00
  1000022 -1    0    0    0    0 -0.0000000000e+00 -0.0000000000e+00 -4.4721471353e+01 1.0000100000e+04 1.0000000000e+04 0.0000e+00 -1.0000e+00
      -24  1    1    2    0    0 +3.5308379813e+03 -8.6186879250e+03 +3.5781065067e+03 9.9778663672e+03 7.9829010000e+01 0.0000e+00 -1.0000e+00
       24  1    1    2    0    0 -2.8569664682e+02 +5.8011978643e+02 -9.3228066880e+01 6.5819881791e+02 7.9829010000e+01 0.0000e+00 -1.0000e+00
       22  1    1    2    0    0 -5.6120749633e+01 +1.4115625857e+02 +2.1880580508e+01 1.5347112978e+02 0.0000000000e+00 0.0000e+00 1.0000e+00
       22  1    1    2    0    0 -3.1890205849e+03 +7.8974118800e+03 -3.5067590204e+03 9.2106636851e+03 0.0000000000e+00 0.0000e+00 -1.0000e+00
</event>
<event>
 6      1 +1.4834189e-01 1.04575900e+04 7.81653100e-03 6.91181400e-02
  1000022 -1    0    0    0    0 +0.0000000000e+00 +0.0000000000e+00 +4.4721471353e+01 1.0000100000e+04 1.0000000000e+04 0.0000e+00 -1.0000e+00
  1000022 -1    0    0    0    0 -0.0000000000e+00 -0.0000000000e+00 -4.4721471353e+01 1.0000100000e+04 1.0000000000e+04 0.0000e+00 -1.0000e+00
      -24  1    1    2    0    0 -1.5787680021e+02 -4.4159703172e+03 +4.0440952448e+03 5.9905590679e+03 7.9829010000e+01 0.0000e+00 -1.0000e+00
       24  1    1    2    0    0 +1.7402808094e+03 +4.5436346952e+03 -8.2086439010e+03 9.5426097533e+03 7.9829010000e+01 0.0000e+00 -1.0000e+00
       22  1    1    2    0    0 +3.0864993666e+00 -1.8626230176e+01 +1.6913016452e+01 2.5347841218e+01 0.0000000000e+00 0.0000e+00 -1.0000e+00
       22  1    1    2    0    0 -1.5854905086e+03 -1.0903814791e+02 +4.1476356398e+03 4.4416833376e+03 0.0000000000e+00 0.0000e+00 -1.0000e+00
</event>
<event>
 6      1 +1.4834189e-01 8.50539700e+03 7.81653100e-03 7.03789200e-02
  1000022 -1    0    0    0    0 +0.0000000000e+00 +0.0000000000e+00 +4.4721471353e+01 1.0000100000e+04 1.0000000000e+04 0.0000e+00 1.0000e+00
  1000022 -1    0    0    0    0 -0.0000000000e+00 -0.0000000000e+00 -4.4721471353e+01 1.0000100000e+04 1.0000000000e+04 0.0000e+00 1.0000e+00
      -24  1    1    2    0    0 -1.2550021895e+02 +2.2517853169e+03 +3.4445513180e+01 2.2569551574e+03 7.9829010000e+01 0.0000e+00 -1.0000e+00
       24  1    1    2    0    0 +7.1125166926e+03 -5.2314634607e+03 +2.7984904626e+03 9.2625064201e+03 7.9829010000e+01 0.0000e+00 -1.0000e+00
       22  1    1    2    0    0 +5.6723516095e+01 +5.0570799872e+02 -4.2274503991e+01 5.1063222670e+02 0.0000000000e+00 0.0000e+00 -1.0000e+00
       22  1    1    2    0    0 -7.0437399897e+03 +2.4739701451e+03 -2.7906614718e+03 7.9701061958e+03 0.0000000000e+00 0.0000e+00 -1.0000e+00
</event>
<event>
 6      1 +1.4834189e-01 1.00201700e+04 7.81653100e-03 6.93750900e-02
  1000022 -1    0    0    0    0 +0.0000000000e+00 +0.0000000000e+00 +4.4721471353e+01 1.0000100000e+04 1.0000000000e+04 0.0000e+00 1.0000e+00
  1000022 -1    0    0    0    0 -0.0000000000e+00 -0.0000000000e+00 -4.4721471353e+01 1.0000100000e+04 1.0000000000e+04 0.0000e+00 1.0000e+00
      -24  1    1    2    0    0 -3.3692164871e+03 +6.6750618816e+03 +5.3305257410e+03 9.1830794511e+03 7.9829010000e+01 0.0000e+00 -1.0000e+00
       24  1    1    2    0    0 +3.3543745884e+03 -6.8723609601e+03 -5.7036194253e+03 9.5403784655e+03 7.9829010000e+01 0.0000e+00 -1.0000e+00
       22  1    1    2    0    0 +1.1643879758e+02 -3.2262609466e+02 -2.7504037276e+02 4.3965076730e+02 0.0000000000e+00 0.0000e+00 1.0000e+00
       22  1    1    2    0    0 -1.0159689888e+02 +5.1992517319e+02 +6.4813405704e+02 8.3709131609e+02 0.0000000000e+00 0.0000e+00 1.0000e+00
</event>
<event>
 6      1 +1.4834189e-01 1.00309900e+04 7.81653100e-03 6.93685800e-02
  1000022 -1    0    0    0    0 +0.0000000000e+00 +0.0000000000e+00 +4.4721471353e+01 1.0000100000e+04 1.0000000000e+04 0.0000e+00 1.0000e+00
  1000022 -1    0    0    0    0 -0.0000000000e+00 -0.0000000000e+00 -4.4721471353e+01 1.0000100000e+04 1.0000000000e+04 0.0000e+00 1.0000e+00
      -24  1    1    2    0    0 -7.8412067668e+03 +4.1914043681e+03 -4.4705007287e+03 9.9520924218e+03 7.9829010000e+01 0.0000e+00 1.0000e+00
       24  1    1    2    0    0 +4.3798931299e+03 -2.4573191889e+03 +3.1267496554e+03 5.9164869225e+03 7.9829010000e+01 0.0000e+00 1.0000e+00
       22  1    1    2    0    0 +3.4742270929e+03 -1.7399039116e+03 +1.3533666050e+03 4.1145012678e+03 0.0000000000e+00 0.0000e+00 1.0000e+00
       22  1    1    2    0    0 -1.2913456041e+01 +5.8187323810e+00 -9.6155317805e+00 1.7119387982e+01 0.0000000000e+00 0.0000e+00 1.0000e+00
</event>
<event>
 6      1 +1.4834189e-01 1.00936700e+04 7.81653100e-03 6.93310000e-02
  1000022 -1    0    0    0    0 +0.0000000000e+00 +0.0000000000e+00 +4.4721471353e+01 1.0000100000e+04 1.0000000000e+04 0.0000e+00 1.0000e+00
  1000022 -1    0    0    0    0 -0.0000000000e+00 -0.0000000000e+00 -4.4721471353e+01 1.0000100000e+04 1.0000000000e+04 0.0000e+00 1.0000e+00
      -24  1    1    2    0    0 -4.2381042416e+03 -4.4482368524e+03 +7.7707498881e+03 9.9065263918e+03 7.9829010000e+01 0.0000e+00 -1.0000e+00
       24  1    1    2    0    0 +3.5428001074e+03 +4.1202548414e+03 -5.7293813006e+03 7.8968421105e+03 7.9829010000e+01 0.0000e+00 -1.0000e+00
       22  1    1    2    0    0 +9.5687438700e+01 +1.0377058793e+02 -1.8184392026e+02 2.3019911421e+02 0.0000000000e+00 0.0000e+00 1.0000e+00
       22  1    1    2    0    0 +5.9961669551e+02 +2.2421142300e+02 -1.8595246672e+03 1.9666323835e+03 0.0000000000e+00 0.0000e+00 1.0000e+00
</event>
<event>
 6      1 +1.4834189e-01 1.02252200e+04 7.81653100e-03 6.92530300e-02
  1000022 -1    0    0    0    0 +0.0000000000e+00 +0.0000000000e+00 +4.4721471353e+01 1.0000100000e+04 1.0000000000e+04 0.0000e+00 -1.0000e+00
  1000022 -1    0    0    0    0 -0.0000000000e+00 -0.0000000000e+00 -4.4721471353e+01 1.0000100000e+04 1.0000000000e+04 0.0000e+00 -1.0000e+00
      -24  1    1    2    0    0 -6.3504855862e+03 -9.2583911097e+02 +7.1979308517e+03 9.6437765661e+03 7.9829010000e+01 0.0000e+00 -1.0000e+00
       24  1    1    2    0    0 +7.0093860764e+02 -8.3624441638e+02 -1.6699896560e+03 1.9964613138e+03 7.9829010000e+01 0.0000e+00 -1.0000e+00
       22  1    1    2    0    0 +5.7461815560e+03 +1.7791140507e+03 -5.6150371652e+03 8.2287600310e+03 0.0000000000e+00 0.0000e+00 -1.0000e+00
       22  1    1    2    0    0 -9.6634577439e+01 -1.7030523397e+01 +8.7095969553e+01 1.3120208915e+02 0.0000000000e+00 0.0000e+00 1.0000e+00
</event>
<event>
 6      1 +1.4834189e-01 1.00036100e+04 7.81653100e-03 6.93850800e-02
  1000022 -1    0    0    0    0 +0.0000000000e+00 +0.0000000000e+00 +4.4721471353e+01 1.0000100000e+04 1.0000000000e+04 0.0000e+00 -1.0000e+00
  1000022 -1    0    0    0    0 -0.0000000000e+00 -0.0000000000e+00 -4.4721471353e+01 1.0000100000e+04 1.0000000000e+04 0.0000e+00 -1.0000e+00
      -24  1    1    2    0    0 +4.1691889344e+03 +8.0678443365e+03 +4.1777028790e+03 9.9965905500e+03 7.9829010000e+01 0.0000e+00 -1.0000e+00
       24  1    1    2    0    0 -4.1669708121e+03 -8.0402795317e+03 -4.1722581364e+03 9.9711509528e+03 7.9829010000e+01 0.0000e+00 -1.0000e+00
       22  1    1    2    0    0 +3.6215223384e+00 -1.4090486309e+01 +3.8873985861e+00 1.5058854413e+01 0.0000000000e+00 0.0000e+00 -1.0000e+00
       22  1    1    2    0    0 -5.8396446177e+00 -1.3474318564e+01 -9.3321411544e+00 1.7399642771e+01 0.0000000000e+00 0.0000e+00 1.0000e+00
</event>
<event>
 6      1 +1.4834189e-01 1.04791400e+04 7.81653100e-03 6.91058200e-02
  1000022 -1    0    0    0    0 +0.0000000000e+00 +0.0000000000e+00 +4.4721471353e+01 1.0000100000e+04 1.0000000000e+04 0.0000e+00 -1.0000e+00
  1000022 -1    0    0    0    0 -0.0000000000e+00 -0.0000000000e+00 -4.4721471353e+01 1.0000100000e+04 1.0000000000e+04 0.0000e+00 -1.0000e+00
      -24  1    1    2    0    0 -3.3781736110e+03 -4.7442994844e+03 -5.8397815910e+03 8.2480213533e+03 7.9829010000e+01 0.0000e+00 1.0000e+00
       24  1    1    2    0    0 +4.6147524566e+03 +6.4755657390e+03 +5.1856930122e+03 9.4935070740e+03 7.9829010000e+01 0.0000e+00 1.0000e+00
       22  1    1    2    0    0 -1.2292412986e+03 -1.7501658194e+03 +6.3542794646e+02 2.2311170388e+03 0.0000000000e+00 0.0000e+00 1.0000e+00
       22  1    1    2    0    0 -7.3375469738e+00 +1.8899564686e+01 +1.8660632332e+01 2.7554533927e+01 0.0000000000e+00 0.0000e+00 -1.0000e+00
</event>
<event>
 6      1 +1.4834189e-01 1.00034500e+04 7.81653100e-03 6.93851700e-02
  1000022 -1    0    0    0    0 +0.0000000000e+00 +0.0000000000e+00 +4.4721471353e+01 1.0000100000e+04 1.0000000000e+04 0.0000e+00 -1.0000e+00
  1000022 -1    0    0    0    0 -0.0000000000e+00 -0.0000000000e+00 -4.4721471353e+01 1.0000100000e+04 1.0000000000e+04 0.0000e+00 -1.0000e+00
      -24  1    1    2    0    0 -3.6994299986e+03 -3.2134894445e+03 -7.8618938944e+03 9.2643426643e+03 7.9829010000e+01 0.0000e+00 -1.0000e+00
       24  1    1    2    0    0 +3.9757118046e+03 +3.3355684277e+03 +8.4087573256e+03 9.8815926611e+03 7.9829010000e+01 0.0000e+00 -1.0000e+00
       22  1    1    2    0    0 -3.2365731221e+02 -1.5864074199e+02 -6.4525460554e+02 7.3910381323e+02 0.0000000000e+00 0.0000e+00 -1.0000e+00
       22  1    1    2    0    0 +4.7375506174e+01 +3.6561758840e+01 +9.8391174335e+01 1.1516086133e+02 0.0000000000e+00 0.0000e+00 -1.0000e+00
</event>
<event>
 6      1 +1.4834189e-01 1.00076100e+04 7.81653100e-03 6.93826600e-02
  1000022 -1    0    0    0    0 +0.0000000000e+00 +0.0000000000e+00 +4.4721471353e+01 1.0000100000e+04 1.0000000000e+04 0.0000e+00 -1.0000e+00
  1000022 -1    0    0    0    0 -0.0000000000e+00 -0.0000000000e+00 -4.4721471353e+01 1.0000100000e+04 1.0000000000e+04 0.0000e+00 -1.0000e+00
      -24  1    1    2    0    0 -2.2204837997e+02 -5.9710741138e+01 +3.3645813181e+02 4.1526810731e+02 7.9829010000e+01 0.0000e+00 0.0000e+00
       24  1    1    2    0    0 +2.7354228682e+03 +1.7902112354e+03 -6.4186001591e+03 7.2036237554e+03 7.9829010000e+01 0.0000e+00 -1.0000e+00
       22  1    1    2    0    0 -3.6323369817e+03 -2.3951948736e+03 +8.5488097796e+03 9.5923396040e+03 0.0000000000e+00 0.0000e+00 -1.0000e+00
       22  1    1    2    0    0 +1.1189624935e+03 +6.6469437937e+02 -2.4666677523e+03 2.7889685333e+03 0.0000000000e+00 0.0000e+00 -1.0000e+00
</event>
<event>
 6      1 +1.4834189e-01 1.00147700e+04 7.81653100e-03 6.93783500e-02
  1000022 -1    0    0    0    0 +0.0000000000e+00 +0.0000000000e+00 +4.4721471353e+01 1.0000100000e+04 1.0000000000e+04 0.0000e+00 1.0000e+00
  1000022 -1    0    0    0    0 -0.0000000000e+00 -0.0000000000e+00 -4.4721471353e+01 1.0000100000e+04 1.0000000000e+04 0.0000e+00 1.0000e+00
      -24  1    1    2    0    0 +3.7575823646e+03 +5.9885502713e+03 -7.0512653468e+03 9.9854331524e+03 7.9829010000e+01 0.0000e+00 1.0000e+00
       24  1    1    2    0    0 -1.8561128451e+02 -2.5604933563e+02 +2.8196884499e+02 4.3115184285e+02 7.9829010000e+01 0.0000e+00 0.0000e+00
       22  1    1    2    0    0 -3.4109641457e+03 -5.6510570807e+03 +6.6313435891e+03 9.3564865376e+03 0.0000000000e+00 0.0000e+00 1.0000e+00
       22  1    1    2    0    0 -1.6100693443e+02 -8.1443855003e+01 +1.3795291272e+02 2.2712846713e+02 0.0000000000e+00 0.0000e+00 -1.0000e+00
</event>
<event>
 6      1 +1.4834189e-01 1.14929800e+04 7.81653100e-03 6.85572000e-02
  1000022 -1    0    0    0    0 +0.0000000000e+00 +0.0000000000e+00 +4.4721471353e+01 1.0000100000e+04 1.0000000000e+04 0.0000e+00 1.0000e+00
  1000022 -1    0    0    0    0 -0.0000000000e+00 -0.0000000000e+00 -4.4721471353e+01 1.0000100000e+04 1.0000000000e+04 0.0000e+00 1.0000e+00
      -24  1    1    2    0    0 +4.7894373226e+03 -3.2815962123e+03 +5.5821429704e+03 8.0544569265e+03 7.9829010000e+01 0.0000e+00 1.0000e+00
       24  1    1    2    0    0 -6.9799936744e+03 +7.7504569489e+02 -4.8005572429e+03 8.5072163506e+03 7.9829010000e+01 0.0000e+00 1.0000e+00
       22  1    1    2    0    0 +2.1738899411e+03 +2.5148217617e+03 -7.9197890169e+02 3.4172147357e+03 0.0000000000e+00 0.0000e+00 1.0000e+00
       22  1    1    2    0    0 +1.6666410718e+01 -8.2712443323e+00 +1.0393174153e+01 2.1311987191e+01 0.0000000000e+00 0.0000e+00 1.0000e+00
</event>
<event>
 6      1 +1.4834189e-01 1.00055200e+04 7.81653100e-03 6.93839200e-02
  1000022 -1    0    0    0    0 +0.0000000000e+00 +0.0000000000e+00 +4.4721471353e+01 1.0000100000e+04 1.0000000000e+04 0.0000e+00 1.0000e+00
  1000022 -1    0    0    0    0 -0.0000000000e+00 -0.0000000000e+00 -4.4721471353e+01 1.0000100000e+04 1.0000000000e+04 0.0000e+00 1.0000e+00
      -24  1    1    2    0    0 -5.5385760799e+03 -5.4257856807e+03 +6.2766437532e+03 9.9758510775e+03 7.9829010000e+01 0.0000e+00 1.0000e+00
       24  1    1    2    0    0 +5.5671704713e+03 +5.4105966704e+03 -6.2678915030e+03 9.9780148301e+03 7.9829010000e+01 0.0000e+00 1.0000e+00
       22  1    1    2    0    0 -1.2815617910e-01 +1.6659884594e+01 -5.3454978189e-01 1.6668950842e+01 0.0000000000e+00 0.0000e+00 -1.0000e+00
       22  1    1    2    0    0 -2.8466235225e+01 -1.4708743322e+00 -8.2177005030e+00 2.9665141508e+01 0.0000000000e+00 0.0000e+00 1.0000e+00
</event>
<event>
 6      1 +1.4834189e-01 1.00466800e+04 7.81653100e-03 6.93591400e-02
  1000022 -1    0    0    0    0 +0.0000000000e+00 +0.0000000000e+00 +4.4721471353e+01 1.0000100000e+04 1.0000000000e+04 0.0000e+00 1.0000e+00
  1000022 -1    0    0    0    0 -0.0000000000e+00 -0.0000000000e+00 -4.4721471353e+01 1.0000100000e+04 1.0000000000e+04 0.0000e+00 1.0000e+00
      -24  1    1    2    0    0 -3.8605376615e+03 -6.2874539286e+03 +4.2614845708e+03 8.5207072100e+03 7.9829010000e+01 0.0000e+00 -1.0000e+00
       24  1    1    2    0    0 +4.3717711067e+03 +7.0968497732e+03 -5.4395325453e+03 9.9535192920e+03 7.9829010000e+01 0.0000e+00 -1.0000e+00
       22  1    1    2    0    0 -4.8677581368e+02 -7.9653277166e+02 +1.1708211658e+03 1.4974102148e+03 0.0000000000e+00 0.0000e+00 -1.0000e+00
       22  1    1    2    0    0 -2.4457631542e+01 -1.2863072949e+01 +7.2268087454e+00 2.8563283267e+01 0.0000000000e+00 0.0000e+00 -1.0000e+00
</event>
<event>
 6      1 +1.4834189e-01 1.00026900e+04 7.81653100e-03 6.93856300e-02
  1000022 -1    0    0    0    0 +0.0000000000e+00 +0.0000000000e+00 +4.4721471353e+01 1.0000100000e+04 1.0000000000e+04 0.0000e+00 1.0000e+00
  1000022 -1    0    0    0    0 -0.0000000000e+00 -0.0000000000e+00 -4.4721471353e+01 1.0000100000e+04 1.0000000000e+04 0.0000e+00 1.0000e+00
      -24  1    1    2    0    0 -1.8325225373e+03 -5.2942323469e+03 -5.6762641223e+03 7.9757997749e+03 7.9829010000e+01 0.0000e+00 1.0000e+00
       24  1    1    2    0    0 +1.2239998771e+02 +2.1445615558e+02 +4.3562256324e+02 5.0706300210e+02 7.9829010000e+01 0.0000e+00 1.0000e+00
       22  1    1    2    0    0 +2.4837429926e+03 +6.4351656227e+03 +6.5258418541e+03 9.4956278228e+03 0.0000000000e+00 0.0000e+00 1.0000e+00
       22  1    1    2    0    0 -7.7362044309e+02 -1.3553894313e+03 -1.2852002951e+03 2.0217094002e+03 0.0000000000e+00 0.0000e+00 -1.0000e+00
</event>
<event>
 6      1 +1.4834189e-01 1.00603800e+04 7.81653100e-03 6.93509300e-02
  1000022 -1    0    0    0    0 +0.0000000000e+00 +0.0000000000e+00 +4.4721471353e+01 1.0000100000e+04 1.0000000000e+04 0.0000e+00 -1.0000e+00
  1000022 -1    0    0    0    0 -0.0000000000e+00 -0.0000000000e+00 -4.4721471353e+01 1.0000100000e+04 1.0000000000e+04 0.0000e+00 -1.0000e+00
      -24  1    1    2    0    0 -8.2570687002e+03 -4.1505769469e+03 -3.6588549725e+03 9.9398221761e+03 7.9829010000e+01 0.0000e+00 1.0000e+00
       24  1    1    2    0    0 +6.2120391982e+03 +3.4107018100e+03 +2.8418198724e+03 7.6357468983e+03 7.9829010000e+01 0.0000e+00 1.0000e+00
       22  1    1    2    0    0 +1.7679629677e+03 +8.0917791193e+02 +8.7671480810e+02 2.1328597711e+03 0.0000000000e+00 0.0000e+00 1.0000e+00
       22  1    1    2    0    0 +2.7706653429e+02 -6.9302774969e+01 -5.9679707988e+01 2.9177115448e+02 0.0000000000e+00 0.0000e+00 1.0000e+00
</event>
<event>
 6      1 +1.4834189e-01 9.88824000e+03 7.81653100e-03 6.94551900e-02
  1000022 -1    0    0    0    0 +0.0000000000e+00 +0.0000000000e+00 +4.4721471353e+01 1.0000100000e+04 1.0000000000e+04 0.0000e+00 -1.0000e+00
  1000022 -1    0    0    0    0 -0.0000000000e+00 -0.0000000000e+00 -4.4721471353e+01 1.0000100000e+04 1.0000000000e+04 0.0000e+00 -1.0000e+00
      -24  1    1    2    0    0 +1.5030875576e+02 +5.9826105586e+01 +1.3780015361e+02 2.2700977543e+02 7.9829010000e+01 0.0000e+00 -1.0000e+00
       24  1    1    2    0    0 +5.9519705528e+03 +3.2191335485e+03 -6.2776193252e+03 9.2305823937e+03 7.9829010000e+01 0.0000e+00 -1.0000e+00
       22  1    1    2    0    0 -6.5024556259e+03 -3.4428009130e+03 +6.6192814656e+03 9.8969537947e+03 0.0000000000e+00 0.0000e+00 -1.0000e+00
       22  1    1    2    0    0 +4.0017631735e+02 +1.6384125888e+02 -4.7946229397e+02 6.4565403617e+02 0.0000000000e+00 0.0000e+00 -1.0000e+00
</event>
<event>
 6      1 +1.4834189e-01 1.00056200e+04 7.81653100e-03 6.93838600e-02
  1000022 -1    0    0    0    0 +0.0000000000e+00 +0.0000000000e+00 +4.4721471353e+01 1.0000100000e+04 1.0000000000e+04 0.0000e+00 -1.0000e+00
  1000022 -1    0    0    0    0 -0.0000000000e+00 -0.0000000000e+00 -4.4721471353e+01 1.0000100000e+04 1.0000000000e+04 0.0000e+00 -1.0000e+00
      -24  1    1    2    0    0 +2.4190277995e+03 +4.6623281421e+03 +8.4947388696e+03 9.9877905631e+03 7.9829010000e+01 0.0000e+00 1.0000e+00
       24  1    1    2    0    0 -2.3447636900e+03 -4.5098540580e+03 -8.2433606650e+03 9.6848370204e+03 7.9829010000e+01 0.0000e+00 1.0000e+00
       22  1    1    2    0    0 -6.1206552255e+00 -8.6428352730e+00 +1.4345042335e+01 1.7830907479e+01 0.0000000000e+00 0.0000e+00 1.0000e+00
       22  1    1    2    0    0 -6.8143454299e+01 -1.4383124881e+02 -2.6572324687e+02 3.0974150904e+02 0.0000000000e+00 0.0000e+00 1.0000e+00
</event>
<event>
 6      1 +1.4834189e-01 1.00001700e+04 7.81653100e-03 6.93871500e-02
  1000022 -1    0    0    0    0 +0.0000000000e+00 +0.0000000000e+00 +4.4721471353e+01 1.0000100000e+04 1.0000000000e+04 0.0000e+00 -1.0000e+00
  1000022 -1    0    0    0    0 -0.0000000000e+00 -0.0000000000e+00 -4.4721471353e+01 1.0000100000e+04 1.0000000000e+04 0.0000e+00 -1.0000e+00
      -24  1    1    2    0    0 -5.8442434852e+03 -2.1016026317e+03 -7.2428670332e+03 9.5413526854e+03 7.9829010000e+01 0.0000e+00 1.0000e+00
       24  1    1    2    0    0 +6.0418500828e+03 +2.2309915573e+03 +7.5869546682e+03 9.9523630139e+03 7.9829010000e+01 0.0000e+00 1.0000e+00
       22  1    1    2    0    0 -2.3672646106e+02 -1.4872882164e+02 -3.6362167954e+02 4.5867243822e+02 0.0000000000e+00 0.0000e+00 -1.0000e+00
       22  1    1    2    0    0 +3.9119863414e+01 +1.9339896053e+01 +1.9534044519e+01 4.7811862421e+01 0.0000000000e+00 0.0000e+00 1.0000e+00
</event>
<event>
 6      1 +1.4834189e-01 1.00008700e+04 7.81653100e-03 6.93867300e-02
  1000022 -1    0    0    0    0 +0.0000000000e+00 +0.0000000000e+00 +4.4721471353e+01 1.0000100000e+04 1.0000000000e+04 0.0000e+00 1.0000e+00
  1000022 -1    0    0    0    0 -0.0000000000e+00 -0.0000000000e+00 -4.4721471353e+01 1.0000100000e+04 1.0000000000e+04 0.0000e+00 1.0000e+00
      -24  1    1    2    0    0 -7.1489635096e+03 +6.3805265787e+03 +2.2693216044e+03 9.8475881259e+03 7.9829010000e+01 0.0000e+00 1.0000e+00
       24  1    1    2    0    0 +3.8531837746e+03 -3.5241375008e+03 -1.0895549515e+03 5.3347983081e+03 7.9829010000e+01 0.0000e+00 1.0000e+00
       22  1    1    2    0    0 +3.4234091427e+03 -2.9151101747e+03 -1.2410696095e+03 4.6645311945e+03 0.0000000000e+00 0.0000e+00 1.0000e+00
       22  1    1    2    0    0 -1.2762940769e+02 +5.8721096764e+01 +6.1302956532e+01 1.5328237144e+02 0.0000000000e+00 0.0000e+00 1.0000e+00
</event>
<event>
 6      1 +1.4834189e-01 1.00026700e+04 7.81653100e-03 6.93856400e-02
  1000022 -1    0    0    0    0 +0.0000000000e+00 +0.0000000000e+00 +4.4721471353e+01 1.0000100000e+04 1.0000000000e+04 0.0000e+00 1.0000e+00
  1000022 -1    0    0    0    0 -0.0000000000e+00 -0.0000000000e+00 -4.4721471353e+01 1.0000100000e+04 1.0000000000e+04 0.0000e+00 1.0000e+00
      -24  1    1    2    0    0 +9.8480607514e+02 -8.9804846305e+03 -4.1977073948e+03 9.9622320415e+03 7.9829010000e+01 0.0000e+00 1.0000e+00
       24  1    1    2    0    0 -9.8418611691e+02 +8.9027459110e+03 +4.1851754363e+03 9.8868383810e+03 7.9829010000e+01 0.0000e+00 1.0000e+00
       22  1    1    2    0    0 -1.5096100381e+01 +1.0127391863e+02 +4.2055548665e+01 1.1069312541e+02 0.0000000000e+00 0.0000e+00 1.0000e+00
       22  1    1    2    0    0 +1.4476142149e+01 -2.3535199073e+01 -2.9523590171e+01 4.0436452162e+01 0.0000000000e+00 0.0000e+00 1.0000e+00
</event>
<event>
 6      1 +1.4834189e-01 1.01236900e+04 7.81653100e-03 6.93131100e-02
  1000022 -1    0    0    0    0 +0.0000000000e+00 +0.0000000000e+00 +4.4721471353e+01 1.0000100000e+04 1.0000000000e+04 0.0000e+00 1.0000e+00
  1000022 -1    0    0    0    0 -0.0000000000e+00 -0.0000000000e+00 -4.4721471353e+01 1.0000100000e+04 1.0000000000e+04 0.0000e+00 1.0000e+00
      -24  1    1    2    0    0 -4.6887712160e+03 -3.2612263581e+03 +8.5327931690e+02 5.7753468414e+03 7.9829010000e+01 0.0000e+00 -1.0000e+00
       24  1    1    2    0    0 +8.0413794109e+03 +4.7855068175e+03 -3.1582076364e+03 9.8765128702e+03 7.9829010000e+01 0.0000e+00 -1.0000e+00
       22  1    1    2    0    0 -3.5286829312e+01 -2.2510622825e+01 +6.8757890044e+00 4.2416564421e+01 0.0000000000e+00 0.0000e+00 1.0000e+00
       22  1    1    2    0    0 -3.3173213655e+03 -1.5017698366e+03 +2.2980525305e+03 4.3059237240e+03 0.0000000000e+00 0.0000e+00 -1.0000e+00
</event>
<event>
 6      1 +1.4834189e-01 1.00641400e+04 7.81653100e-03 6.93486700e-02
  1000022 -1    0    0    0    0 +0.0000000000e+00 +0.0000000000e+00 +4.4721471353e+01 1.0000100000e+04 1.0000000000e+04 0.0000e+00 -1.0000e+00
  1000022 -1    0    0    0    0 -0.0000000000e+00 -0.0000000000e+00 -4.4721471353e+01 1.0000100000e+04 1.0000000000e+04 0.0000e+00 -1.0000e+00
      -24  1    1    2    0    0 +7.0518987798e+03 +6.7110530536e+03 +2.0034920087e+01 9.7352084496e+03 7.9829010000e+01 0.0000e+00 1.0000e+00
       24  1    1    2    0    0 -6.3477970127e+03 -6.0355595648e+03 +5.0498939546e+02 8.7740465655e+03 7.9829010000e+01 0.0000e+00 1.0000e+00
       22  1    1    2    0    0 -8.4866800760e+02 -8.1486219721e+02 -5.2925057195e+02 1.2900945529e+03 0.0000000000e+00 0.0000e+00 1.0000e+00
       22  1    1    2    0    0 +1.4456624051e+02 +1.3936870832e+02 +4.2262564026e+00 2.0085043191e+02 0.0000000000e+00 0.0000e+00 1.0000e+00
</event>
<event>
 6      1 +1.4834189e-01 1.06013200e+04 7.81653100e-03 6.90364700e-02
  1000022 -1    0    0    0    0 +0.0000000000e+00 +0.0000000000e+00 +4.4721471353e+01 1.0000100000e+04 1.0000000000e+04 0.0000e+00 1.0000e+00
  1000022 -1    0    0    0    0 -0.0000000000e+00 -0.0000000000e+00 -4.4721471353e+01 1.0000100000e+04 1.0000000000e+04 0.0000e+00 1.0000e+00
      -24  1    1    2    0    0 -2.3958814385e+03 +8.3135009576e+03 +3.6712555781e+03 9.3988848397e+03 7.9829010000e+01 0.0000e+00 -1.0000e+00
       24  1    1    2    0    0 +2.2012664803e+03 -1.3760567864e+03 +7.4742397199e+01 2.5982812575e+03 7.9829010000e+01 0.0000e+00 -1.0000e+00
       22  1    1    2    0    0 +1.4994753343e+02 -6.3888520552e+03 -3.8236717874e+03 7.4471726705e+03 0.0000000000e+00 0.0000e+00 -1.0000e+00
       22  1    1    2    0    0 +4.4667424786e+01 -5.4859211594e+02 +7.7673812131e+01 5.5586123232e+02 0.0000000000e+00 0.0000e+00 1.0000e+00
</event>
<event>
 6      1 +1.4834189e-01 1.00454300e+04 7.81653100e-03 6.93598900e-02
  1000022 -1    0    0    0    0 +0.0000000000e+00 +0.0000000000e+00 +4.4721471353e+01 1.0000100000e+04 1.0000000000e+04 0.0000e+00 -1.0000e+00
  1000022 -1    0    0    0    0 -0.0000000000e+00 -0.0000000000e+00 -4.4721471353e+01 1.0000100000e+04 1.0000000000e+04 0.0000e+00 -1.0000e+00
      -24  1    1    2    0    0 +6.0221611400e+01 +8.7688531303e+03 -4.7111117008e+03 9.9547655920e+03 7.9829010000e+01 0.0000e+00 -1.0000e+00
       24  1    1    2    0    0 -4.8247205164e+01 -8.3685843009e+03 +4.5005281144e+03 9.5024553129e+03 7.9829010000e+01 0.0000e+00 -1.0000e+00
       22  1    1    2    0    0 +7.1973894557e+01 -3.9316241249e+02 +1.1573096700e+02 4.1611366334e+02 0.0000000000e+00 0.0000e+00 -1.0000e+00
       22  1    1    2    0    0 -8.3948300792e+01 -7.1064169320e+00 +9.4852619395e+01 1.2686543175e+02 0.0000000000e+00 0.0000e+00 1.0000e+00
</event>
<event>
 6      1 +1.4834189e-01 5.45622600e+03 7.81653100e-03 7.32520400e-02
  1000022 -1    0    0    0    0 +0.0000000000e+00 +0.0000000000e+00 +4.4721471353e+01 1.0000100000e+04 1.0000000000e+04 0.0000e+00 1.0000e+00
  1000022 -1    0    0    0    0 -0.0000000000e+00 -0.0000000000e+00 -4.4721471353e+01 1.0000100000e+04 1.0000000000e+04 0.0000e+00 1.0000e+00
      -24  1    1    2    0    0 -6.8891203667e+01 +2.5504071711e+03 +7.7222884481e+03 8.1332302490e+03 7.9829010000e+01 0.0000e+00 -1.0000e+00
       24  1    1    2    0    0 -1.5031810520e+03 -5.4342130522e+03 -4.1641315762e+03 7.0097495837e+03 7.9829010000e+01 0.0000e+00 -1.0000e+00
       22  1    1    2    0    0 +1.5741807927e+03 +2.8946526456e+03 -3.5498441479e+03 4.8433926726e+03 0.0000000000e+00 0.0000e+00 -1.0000e+00
       22  1    1    2    0    0 -2.1085370307e+00 -1.0846764480e+01 -8.3127240177e+00 1.3827494664e+01 0.0000000000e+00 0.0000e+00 1.0000e+00
</event>
<event>
 6      1 +1.4834189e-01 1.00010400e+04 7.81653100e-03 6.93866300e-02
  1000022 -1    0    0    0    0 +0.0000000000e+00 +0.0000000000e+00 +4.4721471353e+01 1.0000100000e+04 1.0000000000e+04 0.0000e+00 1.0000e+00
  1000022 -1    0    0    0    0 -0.0000000000e+00 -0.0000000000e+00 -4.4721471353e+01 1.0000100000e+04 1.0000000000e+04 0.0000e+00 1.0000e+00
      -24  1    1    2    0    0 +1.8033352870e+03 -3.2589155002e+03 -1.8716902190e+03 4.1691900103e+03 7.9829010000e+01 0.0000e+00 -1.0000e+00
       24  1    1    2    0    0 -7.4216629545e+02 +1.1149508626e+03 +6.5065171593e+02 1.4911896467e+03 7.9829010000e+01 0.0000e+00 0.0000e+00
       22  1    1    2    0    0 +2.0890891451e+03 -4.4316448523e+03 -3.1633397777e+03 5.8318511729e+03 0.0000000000e+00 0.0000e+00 -1.0000e+00
       22  1    1    2    0    0 -3.1502581366e+03 +6.5756094900e+03 +4.3843782808e+03 8.5079691702e+03 0.0000000000e+00 0.0000e+00 -1.0000e+00
</event>
<event>
 6      1 +1.4834189e-01 9.40602600e+03 7.81653100e-03 6.97590200e-02
  1000022 -1    0    0    0    0 +0.0000000000e+00 +0.0000000000e+00 +4.4721471353e+01 1.0000100000e+04 1.0000000000e+04 0.0000e+00 1.0000e+00
  1000022 -1    0    0    0    0 -0.0000000000e+00 -0.0000000000e+00 -4.4721471353e+01 1.0000100000e+04 1.0000000000e+04 0.0000e+00 1.0000e+00
      -24  1    1    2    0    0 +2.7520685971e+02 -2.0605774256e+02 +1.1335127764e+03 1.1871910099e+03 7.9829010000e+01 0.0000e+00 1.0000e+00
       24  1    1    2    0    0 -4.1013089052e+03 -6.8890436533e+02 +9.5179334144e+02 4.2670372855e+03 7.9829010000e+01 0.0000e+00 -1.0000e+00
       22  1    1    2    0    0 +8.8391521542e+03 +2.0618012508e+03 -2.4029227689e+03 9.3891252540e+03 0.0000000000e+00 0.0000e+00 -1.0000e+00
       22  1    1    2    0    0 -5.0130501087e+03 -1.1668391430e+03 +3.1761665113e+02 5.1568464506e+03 0.0000000000e+00 0.0000e+00 -1.0000e+00
</event>
<event>
 6      1 +1.4834189e-01 1.00020500e+04 7.81653100e-03 6.93860200e-02
  1000022 -1    0    0    0    0 +0.0000000000e+00 +0.0000000000e+00 +4.4721471353e+01 1.0000100000e+04 1.0000000000e+04 0.0000e+00 1.0000e+00
  1000022 -1    0    0    0    0 -0.0000000000e+00 -0.0000000000e+00 -4.4721471353e+01 1.0000100000e+04 1.0000000000e+04 0.0000e+00 1.0000e+00
      -24  1    1    2    0    0 -6.8350630073e+03 +5.9992450398e+03 +3.3212243852e+03 9.6822482642e+03 7.9829010000e+01 0.0000e+00 -1.0000e+00
       24  1    1    2    0    0 +7.0687348856e+03 -6.2011232841e+03 -3.3964214166e+03 9.9981495277e+03 7.9829010000e+01 0.0000e+00 -1.0000e+00
       22  1    1    2    0    0 -1.4190646908e+01 +3.2929094651e+00 +7.0088581275e-01 1.4584545016e+01 0.0000000000e+00 0.0000e+00 -1.0000e+00
       22  1    1    2    0    0 -2.1948123138e+02 +1.9858533489e+02 +7.4496145524e+01 3.0521766309e+02 0.0000000000e+00 0.0000e+00 1.0000e+00
</event>
<event>
 6      1 +1.4834189e-01 1.00149800e+04 7.81653100e-03 6.93782100e-02
  1000022 -1    0    0    0    0 +0.0000000000e+00 +0.0000000000e+00 +4.4721471353e+01 1.0000100000e+04 1.0000000000e+04 0.0000e+00 -1.0000e+00
  1000022 -1    0    0    0    0 -0.0000000000e+00 -0.0000000000e+00 -4.4721471353e+01 1.0000100000e+04 1.0000000000e+04 0.0000e+00 -1.0000e+00
      -24  1    1    2    0    0 -4.6358438403e+03 +5.6023454614e+03 -4.5946045563e+03 8.6019815438e+03 7.9829010000e+01 0.0000e+00 -1.0000e+00
       24  1    1    2    0    0 +5.1633064719e+03 -5.9330345596e+03 +4.8541377101e+03 9.2428165830e+03 7.9829010000e+01 0.0000e+00 -1.0000e+00
       22  1    1    2    0    0 -7.5772927286e+02 +8.9363087630e+02 -7.3526033552e+02 1.3832344541e+03 0.0000000000e+00 0.0000e+00 -1.0000e+00
       22  1    1    2    0    0 +2.3026664127e+02 -5.6294177808e+02 +4.7572718178e+02 7.7216741907e+02 0.0000000000e+00 0.0000e+00 -1.0000e+00
</event>
<event>
 6      1 +1.4834189e-01 1.06995100e+04 7.81653100e-03 6.89814100e-02
  1000022 -1    0    0    0    0 +0.0000000000e+00 +0.0000000000e+00 +4.4721471353e+01 1.0000100000e+04 1.0000000000e+04 0.0000e+00 -1.0000e+00
  1000022 -1    0    0    0    0 -0.0000000000e+00 -0.0000000000e+00 -4.4721471353e+01 1.0000100000e+04 1.0000000000e+04 0.0000e+00 -1.0000e+00
      -24  1    1    2    0    0 +4.7234434417e+03 -2.1838870656e+03 +1.7537505458e+02 5.2074379250e+03 7.9829010000e+01 0.0000e+00 1.0000e+00
       24  1    1    2    0    0 -4.7984095021e+03 +7.8466804494e+02 -2.4111045464e+03 5.4277283918e+03 7.9829010000e+01 0.0000e+00 1.0000e+00
       22  1    1    2    0    0 -3.5268254763e+03 +3.3355888083e+03 +2.0559639496e+03 5.2717775370e+03 0.0000000000e+00 0.0000e+00 1.0000e+00
       22  1    1    2    0    0 +3.6017915367e+03 -1.9363697876e+03 +1.7976554222e+02 4.0932561462e+03 0.0000000000e+00 0.0000e+00 1.0000e+00
</event>
<event>
 6      1 +1.4834189e-01 1.00264500e+04 7.81653100e-03 6.93713100e-02
  1000022 -1    0    0    0    0 +0.0000000000e+00 +0.0000000000e+00 +4.4721471353e+01 1.0000100000e+04 1.0000000000e+04 0.0000e+00 1.0000e+00
  1000022 -1    0    0    0    0 -0.0000000000e+00 -0.0000000000e+00 -4.4721471353e+01 1.0000100000e+04 1.0000000000e+04 0.0000e+00 1.0000e+00
      -24  1    1    2    0    0 -1.3122478724e+02 +2.6396852275e+03 +5.4425001216e+03 6.0508130272e+03 7.9829010000e+01 0.0000e+00 -1.0000e+00
       24  1    1    2    0    0 +8.3323177918e+01 -4.3466022333e+02 -2.0237643577e+03 2.0731297857e+03 7.9829010000e+01 0.0000e+00 -1.0000e+00
       22  1    1    2    0    0 +2.6712081091e+02 +1.5043014628e+03 +3.6131967988e+03 3.9229411830e+03 0.0000000000e+00 0.0000e+00 -1.0000e+00
       22  1    1    2    0    0 -2.1921920159e+02 -3.7093264670e+03 -7.0319325626e+03 7.9533160042e+03 0.0000000000e+00 0.0000e+00 -1.0000e+00
</event>
<event>
 6      1 +1.4834189e-01 1.00147200e+04 7.81653100e-03 6.93783700e-02
  1000022 -1    0    0    0    0 +0.0000000000e+00 +0.0000000000e+00 +4.4721471353e+01 1.0000100000e+04 1.0000000000e+04 0.0000e+00 1.0000e+00
  1000022 -1    0    0    0    0 -0.0000000000e+00 -0.0000000000e+00 -4.4721471353e+01 1.0000100000e+04 1.0000000000e+04 0.0000e+00 1.0000e+00
      -24  1    1    2    0    0 +1.9086568927e+03 +2.3630946130e+03 -3.3925019654e+03 4.5544077046e+03 7.9829010000e+01 0.0000e+00 -1.0000e+00
       24  1    1    2    0    0 -3.9590319570e+03 -5.0091203436e+03 +7.6771220655e+03 9.9854792841e+03 7.9829010000e+01 0.0000e+00 -1.0000e+00
       22  1    1    2    0    0 +1.9393539107e+03 +2.5991680979e+03 -4.2243141657e+03 5.3255608683e+03 0.0000000000e+00 0.0000e+00 1.0000e+00
       22  1    1    2    0    0 +1.1102115364e+02 +4.6857632719e+01 -6.0305934497e+01 1.3475214297e+02 0.0000000000e+00 0.0000e+00 1.0000e+00
</event>
<event>
 6      1 +1.4834189e-01 1.00066200e+04 7.81653100e-03 6.93832600e-02
  1000022 -1    0    0    0    0 +0.0000000000e+00 +0.0000000000e+00 +4.4721471353e+01 1.0000100000e+04 1.0000000000e+04 0.0000e+00 1.0000e+00
  1000022 -1    0    0    0    0 -0.0000000000e+00 -0.0000000000e+00 -4.4721471353e+01 1.0000100000e+04 1.0000000000e+04 0.0000e+00 1.0000e+00
      -24  1    1    2    0    0 +1.0450224551e+03 -9.3866501583e+03 -3.2655881715e+03 9.9935835366e+03 7.9829010000e+01 0.0000e+00 1.0000e+00
       24  1    1    2    0    0 -8.4173807724e+02 +8.3251436729e+03 +2.8929750080e+03 8.8539379506e+03 7.9829010000e+01 0.0000e+00 1.0000e+00
       22  1    1    2    0    0 -1.2217864207e+01 +6.3194808596e-01 +8.5119135033e+00 1.4903967111e+01 0.0000000000e+00 0.0000e+00 -1.0000e+00
       22  1    1    2    0    0 -1.9106651368e+02 +1.0608745373e+03 +3.6410124995e+02 1.1377745456e+03 0.0000000000e+00 0.0000e+00 1.0000e+00
</event>
<event>
 6      1 +1.4834189e-01 1.07510300e+04 7.81653100e-03 6.89527500e-02
  1000022 -1    0    0    0    0 +0.0000000000e+00 +0.0000000000e+00 +4.4721471353e+01 1.0000100000e+04 1.0000000000e+04 0.0000e+00 -1.0000e+00
  1000022 -1    0    0    0    0 -0.0000000000e+00 -0.0000000000e+00 -4.4721471353e+01 1.0000100000e+04 1.0000000000e+04 0.0000e+00 -1.0000e+00
      -24  1    1    2    0    0 +7.3906786767e+03 -1.6855214415e+03 -5.2988299678e+03 9.2491667479e+03 7.9829010000e+01 0.0000e+00 1.0000e+00
       24  1    1    2    0    0 -1.0264494300e+03 -2.6244904651e+02 +5.2602565135e+02 1.1855604544e+03 7.9829010000e+01 0.0000e+00 1.0000e+00
       22  1    1    2    0    0 -4.6546030147e+03 -1.1109704449e+03 +2.7704149981e+03 5.5294469720e+03 0.0000000000e+00 0.0000e+00 1.0000e+00
       22  1    1    2    0    0 -1.7096262320e+03 +3.0589409329e+03 +2.0023893183e+03 4.0360258258e+03 0.0000000000e+00 0.0000e+00 1.0000e+00
</event>
<event>
 6      1 +1.4834189e-01 1.00074700e+04 7.81653100e-03 6.93827500e-02
  1000022 -1    0    0    0    0 +0.0000000000e+00 +0.0000000000e+00 +4.4721471353e+01 1.0000100000e+04 1.0000000000e+04 0.0000e+00 1.0000e+00
  1000022 -1    0    0    0    0 -0.0000000000e+00 -0.0000000000e+00 -4.4721471353e+01 1.0000100000e+04 1.0000000000e+04 0.0000e+00 1.0000e+00
      -24  1    1    2    0    0 +2.3391576185e+03 -6.3467446478e+02 -3.3832975398e+03 4.1626367790e+03 7.9829010000e+01 0.0000e+00 -1.0000e+00
       24  1    1    2    0    0 -2.2777248668e+03 +3.4020573894e+02 +2.8778628983e+03 3.6867652551e+03 7.9829010000e+01 0.0000e+00 1.0000e+00
       22  1    1    2    0    0 +3.4688191441e+03 -9.2710146827e+02 -4.5932308460e+03 5.8300937378e+03 0.0000000000e+00 0.0000e+00 1.0000e+00
       22  1    1    2    0    0 -3.5302518957e+03 +1.2215701941e+03 +5.0986654875e+03 6.3207042281e+03 0.0000000000e+00 0.0000e+00 1.0000e+00
</event>
<event>
 6      1 +1.4834189e-01 7.33571300e+03 7.81653100e-03 7.13106800e-02
  1000022 -1    0    0    0    0 +0.0000000000e+00 +0.0000000000e+00 +4.4721471353e+01 1.0000100000e+04 1.0000000000e+04 0.0000e+00 -1.0000e+00
  1000022 -1    0    0    0    0 -0.0000000000e+00 -0.0000000000e+00 -4.4721471353e+01 1.0000100000e+04 1.0000000000e+04 0.0000e+00 -1.0000e+00
      -24  1    1    2    0    0 -4.1350351558e+03 -2.1388592695e+03 +2.6521845259e+02 4.6636839743e+03 7.9829010000e+01 0.0000e+00 -1.0000e+00
       24  1    1    2    0    0 +4.0087377758e+03 +7.6007003268e+03 -1.6779096977e+03 8.7557054334e+03 7.9829010000e+01 0.0000e+00 -1.0000e+00
       22  1    1    2    0    0 +3.0844641764e+01 +4.2621593009e+02 -2.0481146181e+02 4.7387672012e+02 0.0000000000e+00 0.0000e+00 -1.0000e+00
       22  1    1    2    0    0 +9.5452738243e+01 -5.8880569874e+03 +1.6175027069e+03 6.1069338721e+03 0.0000000000e+00 0.0000e+00 -1.0000e+00
</event>
<event>
 6      1 +1.4834189e-01 1.00005900e+04 7.81653100e-03 6.93869000e-02
  1000022 -1    0    0    0    0 +0.0000000000e+00 +0.0000000000e+00 +4.4721471353e+01 1.0000100000e+04 1.0000000000e+04 0.0000e+00 1.0000e+00
  1000022 -1    0    0    0    0 -0.0000000000e+00 -0.0000000000e+00 -4.4721471353e+01 1.0000100000e+04 1.0000000000e+04 0.0000e+00 1.0000e+00
      -24  1    1    2    0    0 -1.1734024630e+03 -1.6991163112e+02 -1.5887848000e+03 1.9840244742e+03 7.9829010000e+01 0.0000e+00 1.0000e+00
       24  1    1    2    0    0 +5.8615006988e+02 +7.3208353695e+01 +7.8316607927e+02 9.8420178116e+02 7.9829010000e+01 0.0000e+00 0.0000e+00
       22  1    1    2    0    0 +5.2770969758e+03 +5.2847858359e+02 +7.2916494624e+03 9.0163847515e+03 0.0000000000e+00 0.0000e+00 -1.0000e+00
       22  1    1    2    0    0 -4.6898445827e+03 -4.3177530617e+02 -6.4860307417e+03 8.0155889931e+03 0.0000000000e+00 0.0000e+00 -1.0000e+00
</event>
<event>
 6      1 +1.4834189e-01 1.00011400e+04 7.81653100e-03 6.93865700e-02
  1000022 -1    0    0    0    0 +0.0000000000e+00 +0.0000000000e+00 +4.4721471353e+01 1.0000100000e+04 1.0000000000e+04 0.0000e+00 1.0000e+00
  1000022 -1    0    0    0    0 -0.0000000000e+00 -0.0000000000e+00 -4.4721471353e+01 1.0000100000e+04 1.0000000000e+04 0.0000e+00 1.0000e+00
      -24  1    1    2    0    0 -1.8004232091e+03 +7.9503849134e+03 -5.7608960825e+03 9.9822061863e+03 7.9829010000e+01 0.0000e+00 -1.0000e+00
       24  1    1    2    0    0 +1.7839142470e+03 -7.9291089933e+03 +5.7508955627e+03 9.9565200704e+03 7.9829010000e+01 0.0000e+00 -1.0000e+00
       22  1    1    2    0    0 +1.1461595063e+01 -3.3558610214e+01 +2.3496762933e+01 4.2539938284e+01 0.0000000000e+00 0.0000e+00 -1.0000e+00
       22  1    1    2    0    0 +5.0473669754e+00 +1.2282690162e+01 -1.3496243190e+01 1.8933804986e+01 0.0000000000e+00 0.0000e+00 -1.0000e+00
</event>
<event>
 6      1 +1.4834189e-01 1.00048700e+04 7.81653100e-03 6.93843100e-02
  1000022 -1    0    0    0    0 +0.0000000000e+00 +0.0000000000e+00 +4.4721471353e+01 1.0000100000e+04 1.0000000000e+04 0.0000e+00 -1.0000e+00
  1000022 -1    0    0    0    0 -0.0000000000e+00 -0.0000000000e+00 -4.4721471353e+01 1.0000100000e+04 1.0000000000e+04 0.0000e+00 -1.0000e+00
      -24  1    1    2    0    0 -7.5628706962e+03 -5.4760340806e+03 +3.5107381303e+03 9.9757514659e+03 7.9829010000e+01 0.0000e+00 -1.0000e+00
       24  1    1    2    0    0 +7.2645590707e+03 +5.1506143465e+03 -3.2952914414e+03 9.4956813864e+03 7.9829010000e+01 0.0000e+00 -1.0000e+00
       22  1    1    2    0    0 +3.1456775363e+02 +3.3158158385e+02 -2.2444649477e+02 5.0919097339e+02 0.0000000000e+00 0.0000e+00 1.0000e+00
       22  1    1    2    0    0 -1.6256128127e+01 -6.1618497047e+00 +8.9998058916e+00 1.9576174283e+01 0.0000000000e+00 0.0000e+00 1.0000e+00
</event>
<event>
 6      1 +1.4834189e-01 1.00074900e+04 7.81653100e-03 6.93827300e-02
  1000022 -1    0    0    0    0 +0.0000000000e+00 +0.0000000000e+00 +4.4721471353e+01 1.0000100000e+04 1.0000000000e+04 0.0000e+00 1.0000e+00
  1000022 -1    0    0    0    0 -0.0000000000e+00 -0.0000000000e+00 -4.4721471353e+01 1.0000100000e+04 1.0000000000e+04 0.0000e+00 1.0000e+00
      -24  1    1    2    0    0 -2.2888244274e+03 -3.0370009963e+03 -8.7730114064e+03 9.5621228876e+03 7.9829010000e+01 0.0000e+00 -1.0000e+00
       24  1    1    2    0    0 +2.4394956278e+03 +3.1175436667e+03 +9.1748339578e+03 9.9927057525e+03 7.9829010000e+01 0.0000e+00 -1.0000e+00
       22  1    1    2    0    0 -1.2437319481e+02 -6.6267447356e+01 -3.8723689395e+02 4.1208309624e+02 0.0000000000e+00 0.0000e+00 1.0000e+00
       22  1    1    2    0    0 -2.6298005566e+01 -1.4275223080e+01 -1.4585657462e+01 3.3288263613e+01 0.0000000000e+00 0.0000e+00 -1.0000e+00
</event>
<event>
 6      1 +1.4834189e-01 1.00062500e+04 7.81653100e-03 6.93834800e-02
  1000022 -1    0    0    0    0 +0.0000000000e+00 +0.0000000000e+00 +4.4721471353e+01 1.0000100000e+04 1.0000000000e+04 0.0000e+00 1.0000e+00
  1000022 -1    0    0    0    0 -0.0000000000e+00 -0.0000000000e+00 -4.4721471353e+01 1.0000100000e+04 1.0000000000e+04 0.0000e+00 1.0000e+00
      -24  1    1    2    0    0 +6.9708183291e+02 +1.8517546264e+03 +2.6071656344e+03 3.2739278541e+03 7.9829010000e+01 0.0000e+00 -1.0000e+00
       24  1    1    2    0    0 -4.7814603140e+02 -4.9817067226e+02 -8.0540210786e+02 1.0638810423e+03 7.9829010000e+01 0.0000e+00 1.0000e+00
       22  1    1    2    0    0 +1.9905272047e+03 +3.3728980008e+03 +5.4607795097e+03 6.7200262150e+03 0.0000000000e+00 0.0000e+00 -1.0000e+00
       22  1    1    2    0    0 -2.2094630062e+03 -4.7264819550e+03 -7.2625430362e+03 8.9423648885e+03 0.0000000000e+00 0.0000e+00 -1.0000e+00
</event>
<event>
 6      1 +1.4834189e-01 1.00407800e+04 7.81653100e-03 6.93626900e-02
  1000022 -1    0    0    0    0 +0.0000000000e+00 +0.0000000000e+00 +4.4721471353e+01 1.0000100000e+04 1.0000000000e+04 0.0000e+00 1.0000e+00
  1000022 -1    0    0    0    0 -0.0000000000e+00 -0.0000000000e+00 -4.4721471353e+01 1.0000100000e+04 1.0000000000e+04 0.0000e+00 1.0000e+00
      -24  1    1    2    0    0 +7.2070986123e+03 +6.0295986154e+02 +6.8467450688e+03 9.9594237640e+03 7.9829010000e+01 0.0000e+00 -1.0000e+00
       24  1    1    2    0    0 -6.7013024272e+03 -7.7950337434e+02 -6.3839004064e+03 9.2884679469e+03 7.9829010000e+01 0.0000e+00 -1.0000e+00
       22  1    1    2    0    0 -4.7501481306e+02 +1.3623187513e+02 -4.8902568446e+02 6.9522968614e+02 0.0000000000e+00 0.0000e+00 1.0000e+00
       22  1    1    2    0    0 -3.0781372092e+01 +4.0311637665e+01 +2.6181022086e+01 5.7078602966e+01 0.0000000000e+00 0.0000e+00 1.0000e+00
</event>
<event>
 6      1 +1.4834189e-01 1.00126300e+04 7.81653100e-03 6.93796400e-02
  1000022 -1    0    0    0    0 +0.0000000000e+00 +0.0000000000e+00 +4.4721471353e+01 1.0000100000e+04 1.0000000000e+04 0.0000e+00 1.0000e+00
  1000022 -1    0    0    0    0 -0.0000000000e+00 -0.0000000000e+00 -4.4721471353e+01 1.0000100000e+04 1.0000000000e+04 0.0000e+00 1.0000e+00
      -24  1    1    2    0    0 -1.3960565691e+03 +5.8677231557e+03 -3.6661414675e+03 7.0587615703e+03 7.9829010000e+01 0.0000e+00 1.0000e+00
       24  1    1    2    0    0 +1.6128184610e+03 -8.4540280533e+03 +4.9414801108e+03 9.9245338465e+03 7.9829010000e+01 0.0000e+00 1.0000e+00
       22  1    1    2    0    0 -2.2579835173e+02 +2.6369925571e+03 -1.3117151128e+03 2.9538637712e+03 0.0000000000e+00 0.0000e+00 1.0000e+00
       22  1    1    2    0    0 +9.0364598124e+00 -5.0687659540e+01 +3.6376469443e+01 6.3040811898e+01 0.0000000000e+00 0.0000e+00 -1.0000e+00
</event>
<event>
 6      1 +1.4834189e-01 9.84948100e+03 7.81653100e-03 6.94789600e-02
  1000022 -1    0    0    0    0 +0.0000000000e+00 +0.0000000000e+00 +4.4721471353e+01 1.0000100000e+04 1.0000000000e+04 0.0000e+00 -1.0000e+00
  1000022 -1    0    0    0    0 -0.0000000000e+00 -0.0000000000e+00 -4.4721471353e+01 1.0000100000e+04 1.0000000000e+04 0.0000e+00 -1.0000e+00
      -24  1    1    2    0    0 -3.8268340273e+02 +1.3825491348e+03 +7.5310726552e+02 1.6221688941e+03 7.9829010000e+01 0.0000e+00 1.0000e+00
       24  1    1    2    0    0 -2.7153595733e+02 -9.0492206189e+01 +9.6386764350e+01 3.1238388992e+02 7.9829010000e+01 0.0000e+00 -1.0000e+00
       22  1    1    2    0    0 +2.1837751694e+03 -7.8485327975e+03 -5.5474014703e+03 9.8560643330e+03 0.0000000000e+00 0.0000e+00 -1.0000e+00
       22  1    1    2    0    0 -1.5295558094e+03 +6.5564758689e+03 +4.6979074404e+03 8.2095828830e+03 0.0000000000e+00 0.0000e+00 -1.0000e+00
</event>
<event>
 6      1 +1.4834189e-01 1.00211700e+04 7.81653100e-03 6.93744900e-02
  1000022 -1    0    0    0    0 +0.0000000000e+00 +0.0000000000e+00 +4.4721471353e+01 1.0000100000e+04 1.0000000000e+04 0.0000e+00 1.0000e+00
  1000022 -1    0    0    0    0 -0.0000000000e+00 -0.0000000000e+00 -4.4721471353e+01 1.0000100000e+04 1.0000000000e+04 0.0000e+00 1.0000e+00
      -24  1    1    2    0    0 +3.9779646236e+02 +2.7009844333e+01 +8.5973594954e+01 4.1561483013e+02 7.9829010000e+01 0.0000e+00 0.0000e+00
       24  1    1    2    0    0 -8.9407993493e+03 -2.9475110160e+02 -4.4215243190e+03 9.9790290706e+03 7.9829010000e+01 0.0000e+00 -1.0000e+00
       22  1    1    2    0    0 +2.4451205478e+01 +2.5268692410e+01 +6.3819222617e+01 7.2864678967e+01 0.0000000000e+00 0.0000e+00 -1.0000e+00
       22  1    1    2    0    0 +8.5185516815e+03 +2.4247256486e+02 +4.2717315014e+03 9.5326914203e+03 0.0000000000e+00 0.0000e+00 -1.0000e+00
</event>
<event>
 6      1 +1.4834189e-01 1.01530000e+04 7.81653100e-03 6.92956900e-02
  1000022 -1    0    0    0    0 +0.0000000000e+00 +0.0000000000e+00 +4.4721471353e+01 1.0000100000e+04 1.0000000000e+04 0.0000e+00 -1.0000e+00
  1000022 -1    0    0    0    0 -0.0000000000e+00 -0.0000000000e+00 -4.4721471353e+01 1.0000100000e+04 1.0000000000e+04 0.0000e+00 -1.0000e+00
      -24  1    1    2    0    0 -4.1832837840e+03 -2.0898287371e+03 -6.8329263507e+03 8.2802477350e+03 7.9829010000e+01 0.0000e+00 -1.0000e+00
       24  1    1    2    0    0 +3.9088785803e+03 +2.7716439653e+03 +8.0887013475e+03 9.4018511042e+03 7.9829010000e+01 0.0000e+00 -1.0000e+00
       22  1    1    2    0    0 +1.8675742071e+02 -8.4545460025e+02 -1.6605858483e+03 1.8727565712e+03 0.0000000000e+00 0.0000e+00 -1.0000e+00
       22  1    1    2    0    0 +8.7647782932e+01 +1.6363937207e+02 +4.0481085156e+02 4.4534458960e+02 0.0000000000e+00 0.0000e+00 -1.0000e+00
</event>
<event>
 6      1 +1.4834189e-01 1.00041900e+04 7.81653100e-03 6.93847200e-02
  1000022 -1    0    0    0    0 +0.0000000000e+00 +0.0000000000e+00 +4.4721471353e+01 1.0000100000e+04 1.0000000000e+04 0.0000e+00 1.0000e+00
  1000022 -1    0    0    0    0 -0.0000000000e+00 -0.0000000000e+00 -4.4721471353e+01 1.0000100000e+04 1.0000000000e+04 0.0000e+00 1.0000e+00
      -24  1    1    2    0    0 -2.2670858852e+02 +2.6261295671e+02 -1.4534946178e+03 1.4964563555e+03 7.9829010000e+01 0.0000e+00 1.0000e+00
       24  1    1    2    0    0 +1.3096323245e+03 -1.7577112717e+03 +9.7523875541e+03 9.9960052729e+03 7.9829010000e+01 0.0000e+00 -1.0000e+00
       22  1    1    2    0    0 -1.0733697629e+03 +1.4261471155e+03 -8.1528272366e+03 8.3459337520e+03 0.0000000000e+00 0.0000e+00 -1.0000e+00
       22  1    1    2    0    0 -9.5539730567e+00 +6.8951199428e+01 -1.4606569964e+02 1.6180461958e+02 0.0000000000e+00 0.0000e+00 1.0000e+00
</event>
<event>
 6      1 +1.4834189e-01 1.01704500e+04 7.81653100e-03 6.92853500e-02
  1000022 -1    0    0    0    0 +0.0000000000e+00 +0.0000000000e+00 +4.4721471353e+01 1.0000100000e+04 1.0000000000e+04 0.0000e+00 -1.0000e+00
  1000022 -1    0    0    0    0 -0.0000000000e+00 -0.0000000000e+00 -4.4721471353e+01 1.0000100000e+04 1.0000000000e+04 0.0000e+00 -1.0000e+00
      -24  1    1    2    0    0 +1.8218672705e+03 -1.8914834842e+03 +7.5071180242e+02 2.7325539342e+03 7.9829010000e+01 0.0000e+00 1.0000e+00
       24  1    1    2    0    0 -6.6464580305e+03 +4.2349305109e+03 -5.8743073209e+03 9.8297456709e+03 7.9829010000e+01 0.0000e+00 1.0000e+00
       22  1    1    2    0    0 +5.1487157308e+01 +2.5778957901e+01 +2.4752902587e+01 6.2675260068e+01 0.0000000000e+00 0.0000e+00 1.0000e+00
       22  1    1    2    0    0 +4.7731036027e+03 -2.3692259847e+03 +5.0988426159e+03 7.3752251349e+03 0.0000000000e+00 0.0000e+00 1.0000e+00
</event>
<event>
 6      1 +1.4834189e-01 1.00016600e+04 7.81653100e-03 6.93862600e-02
  1000022 -1    0    0    0    0 +0.0000000000e+00 +0.0000000000e+00 +4.4721471353e+01 1.0000100000e+04 1.0000000000e+04 0.0000e+00 -1.0000e+00
  1000022 -1    0    0    0    0 -0.0000000000e+00 -0.0000000000e+00 -4.4721471353e+01 1.0000100000e+04 1.0000000000e+04 0.0000e+00 -1.0000e+00
      -24  1    1    2    0    0 -3.8140236035e+03 -8.8614276310e+03 +2.2856832199e+03 9.9147564852e+03 7.9829010000e+01 0.0000e+00 1.0000e+00
       24  1    1    2    0    0 +3.8122171016e+03 +8.9001372749e+03 -2.2883500767e+03 9.9492894966e+03 7.9829010000e+01 0.0000e+00 1.0000e+00
       22  1    1    2    0    0 -3.2958609564e+01 -7.5108979772e+01 +1.7112006575e+01 8.3788122999e+01 0.0000000000e+00 0.0000e+00 -1.0000e+00
       22  1    1    2    0    0 +3.4765111474e+01 +3.6399335876e+01 -1.4445149834e+01 5.2365895216e+01 0.0000000000e+00 0.0000e+00 1.0000e+00
</event>
<event>
 6      1 +1.4834189e-01 1.00133700e+04 7.81653100e-03 6.93791900e-02
  1000022 -1    0    0    0    0 +0.0000000000e+00 +0.0000000000e+00 +4.4721471353e+01 1.0000100000e+04 1.0000000000e+04 0.0000e+00 1.0000e+00
  1000022 -1    0    0    0    0 -0.0000000000e+00 -0.0000000000e+00 -4.4721471353e+01 1.0000100000e+04 1.0000000000e+04 0.0000e+00 1.0000e+00
      -24  1    1    2    0    0 -4.5641120137e+03 -6.0293124692e+03 -5.8194923470e+03 9.5423577365e+03 7.9829010000e+01 0.0000e+00 -1.0000e+00
       24  1    1    2    0    0 +4.7970620546e+03 +6.2971291073e+03 +6.0880784570e+03 9.9868268895e+03 7.9829010000e+01 0.0000e+00 -1.0000e+00
       22  1    1    2    0    0 -2.3482951680e+01 +1.0150129607e+01 +7.6078397333e+00 2.6689948971e+01 0.0000000000e+00 0.0000e+00 -1.0000e+00
       22  1    1    2    0    0 -2.0946708922e+02 -2.7796676777e+02 -2.7619394977e+02 4.4432542504e+02 0.0000000000e+00 0.0000e+00 -1.0000e+00
</event>
<event>
 6      1 +1.4834189e-01 1.00542000e+04 7.81653100e-03 6.93546300e-02
  1000022 -1    0    0    0    0 +0.0000000000e+00 +0.0000000000e+00 +4.4721471353e+01 1.0000100000e+04 1.0000000000e+04 0.0000e+00 1.0000e+00
  1000022 -1    0    0    0    0 -0.0000000000e+00 -0.0000000000e+00 -4.4721471353e+01 1.0000100000e+04 1.0000000000e+04 0.0000e+00 1.0000e+00
      -24  1    1    2    0    0 -9.9423302878e+03 +2.0157498442e+02 +1.6131292864e+02 9.9460021394e+03 7.9829010000e+01 0.0000e+00 -1.0000e+00
       24  1    1    2    0    0 +9.8321914556e+03 -1.3442208821e+02 -8.1784858635e+00 9.8334377344e+03 7.9829010000e+01 0.0000e+00 -1.0000e+00
       22  1    1    2    0    0 +3.5744123238e+01 +1.8059411912e+00 +1.5022332407e+00 3.5821229381e+01 0.0000000000e+00 0.0000e+00 1.0000e+00
       22  1    1    2    0    0 +7.4394708912e+01 -6.8958837403e+01 -1.5463667601e+02 1.8493889677e+02 0.0000000000e+00 0.0000e+00 -1.0000e+00
</event>
<event>
 6      1 +1.4834189e-01 1.00685900e+04 7.81653100e-03 6.93460000e-02
  1000022 -1    0    0    0    0 +0.0000000000e+00 +0.0000000000e+00 +4.4721471353e+01 1.0000100000e+04 1.0000000000e+04 0.0000e+00 1.0000e+00
  1000022 -1    0    0    0    0 -0.0000000000e+00 -0.0000000000e+00 -4.4721471353e+01 1.0000100000e+04 1.0000000000e+04 0.0000e+00 1.0000e+00
      -24  1    1    2    0    0 +3.0341935012e+03 +5.0522508298e+03 +7.2725536411e+03 9.3609816677e+03 7.9829010000e+01 0.0000e+00 -1.0000e+00
       24  1    1    2    0    0 -3.4012935469e+03 -5.1663856923e+03 -7.7698238254e+03 9.9316098324e+03 7.9829010000e+01 0.0000e+00 -1.0000e+00
       22  1    1    2    0    0 +3.2340220941e+02 -5.4082978539e+01 +3.5234952713e+02 4.8131501835e+02 0.0000000000e+00 0.0000e+00 -1.0000e+00
       22  1    1    2    0    0 +4.3697836331e+01 +1.6821784102e+02 +1.4492065722e+02 2.2629348162e+02 0.0000000000e+00 0.0000e+00 -1.0000e+00
</event>
<event>
 6      1 +1.4834189e-01 1.00060600e+04 7.81653100e-03 6.93835900e-02
  1000022 -1    0    0    0    0 +0.0000000000e+00 +0.0000000000e+00 +4.4721471353e+01 1.0000100000e+04 1.0000000000e+04 0.0000e+00 -1.0000e+00
  1000022 -1    0    0    0    0 -0.0000000000e+00 -0.0000000000e+00 -4.4721471353e+01 1.0000100000e+04 1.0000000000e+04 0.0000e+00 -1.0000e+00
      -24  1    1    2    0    0 +6.6602691503e+03 +1.3409340632e+03 -5.8198734761e+03 8.9462052997e+03 7.9829010000e+01 0.0000e+00 -1.0000e+00
       24  1    1    2    0    0 -7.4455775565e+03 -1.5382300911e+03 +6.4864156385e+03 9.9941351537e+03 7.9829010000e+01 0.0000e+00 -1.0000e+00
       22  1    1    2    0    0 +7.8292451794e+02 +1.7793368930e+02 -6.5981326254e+02 1.0392231425e+03 0.0000000000e+00 0.0000e+00 -1.0000e+00
       22  1    1    2    0    0 +2.3838882667e+00 +1.9362338603e+01 -6.7288998610e+00 2.0636404066e+01 0.0000000000e+00 0.0000e+00 1.0000e+00
</event>
<event>
 6      1 +1.4834189e-01 1.01025500e+04 7.81653100e-03 6.93257000e-02
  1000022 -1    0    0    0    0 +0.0000000000e+00 +0.0000000000e+00 +4.4721471353e+01 1.0000100000e+04 1.0000000000e+04 0.0000e+00 -1.0000e+00
  1000022 -1    0    0    0    0 -0.0000000000e+00 -0.0000000000e+00 -4.4721471353e+01 1.0000100000e+04 1.0000000000e+04 0.0000e+00 -1.0000e+00
      -24  1    1    2    0    0 +3.7852145401e+02 -5.8829106776e+02 -2.6769509269e+02 7.5325839194e+02 7.9829010000e+01 0.0000e+00 -1.0000e+00
       24  1    1    2    0    0 -1.1595267552e+02 +3.4763187923e+01 +1.5110240152e+01 1.4578920533e+02 7.9829010000e+01 0.0000e+00 0.0000e+00
       22  1    1    2    0    0 -6.6967451699e+03 +5.9350338474e+03 -3.8765747157e+03 9.7518641381e+03 0.0000000000e+00 0.0000e+00 -1.0000e+00
       22  1    1    2    0    0 +6.4341763915e+03 -5.3815059676e+03 +4.1291595683e+03 9.3492882646e+03 0.0000000000e+00 0.0000e+00 -1.0000e+00
</event>
<event>
 6      1 +1.4834189e-01 1.00045000e+04 7.81653100e-03 6.93845400e-02
  1000022 -1    0    0    0    0 +0.0000000000e+00 +0.0000000000e+00 +4.4721471353e+01 1.0000100000e+04 1.0000000000e+04 0.0000e+00 1.0000e+00
  1000022 -1    0    0    0    0 -0.0000000000e+00 -0.0000000000e+00 -4.4721471353e+01 1.0000100000e+04 1.0000000000e+04 0.0000e+00 1.0000e+00
      -24  1    1    2    0    0 -7.9919740950e+03 -1.9494727299e+03 -4.0917790499e+03 9.1880967738e+03 7.9829010000e+01 0.0000e+00 -1.0000e+00
       24  1    1    2    0    0 +3.6504992242e+03 +7.0155670492e+02 +1.7686020187e+03 4.1173598540e+03 7.9829010000e+01 0.0000e+00 1.0000e+00
       22  1    1    2    0    0 +5.0375346405e+03 +1.4344673913e+03 +2.6877529940e+03 5.8871443084e+03 0.0000000000e+00 0.0000e+00 -1.0000e+00
       22  1    1    2    0    0 -6.9605976967e+02 -1.8655136631e+02 -3.6457596277e+02 8.0759906381e+02 0.0000000000e+00 0.0000e+00 -1.0000e+00
</event>
<event>
 6      1 +1.4834189e-01 7.05734100e+03 7.81653100e-03 7.15584700e-02
  1000022 -1    0    0    0    0 +0.0000000000e+00 +0.0000000000e+00 +4.4721471353e+01 1.0000100000e+04 1.0000000000e+04 0.0000e+00 -1.0000e+00
  1000022 -1    0    0    0    0 -0.0000000000e+00 -0.0000000000e+00 -4.4721471353e+01 1.0000100000e+04 1.0000000000e+04 0.0000e+00 -1.0000e+00
      -24  1    1    2    0    0 -3.1465890985e+03 -2.0161439727e+03 -1.6509195663e+03 4.0862901951e+03 7.9829010000e+01 0.0000e+00 1.0000e+00
       24  1    1    2    0    0 +6.0329032486e+03 -2.5480732748e+03 -3.0011315456e+03 7.2042877680e+03 7.9829010000e+01 0.0000e+00 -1.0000e+00
       22  1    1    2    0    0 +6.5043717227e+01 -1.0194968237e+03 +4.0606478727e+02 1.0993148185e+03 0.0000000000e+00 0.0000e+00 -1.0000e+00
       22  1    1    2    0    0 -2.9513578673e+03 +5.5837140712e+03 +4.2459863246e+03 7.6103072184e+03 0.0000000000e+00 0.0000e+00 -1.0000e+00
</event>
<event>
 6      1 +1.4834189e-01 1.00171600e+04 7.81653100e-03 6.93769000e-02
  1000022 -1    0    0    0    0 +0.0000000000e+00 +0.0000000000e+00 +4.4721471353e+01 1.0000100000e+04 1.0000000000e+04 0.0000e+00 1.0000e+00
  1000022 -1    0    0    0    0 -0.0000000000e+00 -0.0000000000e+00 -4.4721471353e+01 1.0000100000e+04 1.0000000000e+04 0.0000e+00 1.0000e+00
      -24  1    1    2    0    0 -2.1003137347e+03 -6.1053566519e+03 -7.5528564626e+03 9.9367354320e+03 7.9829010000e+01 0.0000e+00 -1.0000e+00
       24  1    1    2    0    0 +2.0748803319e+03 +6.1377533242e+03 +7.5923140592e+03 9.9813200382e+03 7.9829010000e+01 0.0000e+00 -1.0000e+00
       22  1    1    2    0    0 -9.4153262159e+00 -2.4085381405e+01 -3.8408568600e+01 4.6303046412e+01 0.0000000000e+00 0.0000e+00 1.0000e+00
       22  1    1    2    0    0 +3.4848729045e+01 -8.3112908792e+00 -1.0490279981e+00 3.5841483394e+01 0.0000000000e+00 0.0000e+00 -1.0000e+00
</event>
<event>
 6      1 +1.4834189e-01 1.00009300e+04 7.81653100e-03 6.93866900e-02
  1000022 -1    0    0    0    0 +0.0000000000e+00 +0.0000000000e+00 +4.4721471353e+01 1.0000100000e+04 1.0000000000e+04 0.0000e+00 1.0000e+00
  1000022 -1    0    0    0    0 -0.0000000000e+00 -0.0000000000e+00 -4.4721471353e+01 1.0000100000e+04 1.0000000000e+04 0.0000e+00 1.0000e+00
      -24  1    1    2    0    0 +8.0910580850e+03 +5.7337808238e+03 +4.8038344304e+02 9.9286758631e+03 7.9829010000e+01 0.0000e+00 1.0000e+00
       24  1    1    2    0    0 -8.0931237913e+03 -5.7260395765e+03 -4.9227831415e+02 9.9264743259e+03 7.9829010000e+01 0.0000e+00 1.0000e+00
       22  1    1    2    0    0 +6.1544255935e+01 +3.3953558075e+01 +1.6727846860e+01 7.2252061598e+01 0.0000000000e+00 0.0000e+00 1.0000e+00
       22  1    1    2    0    0 -5.9478549628e+01 -4.1694805406e+01 -4.8329757477e+00 7.2797749403e+01 0.0000000000e+00 0.0000e+00 -1.0000e+00
</event>
<event>
 6      1 +1.4834189e-01 1.00074600e+04 7.81653100e-03 6.93827500e-02
  1000022 -1    0    0    0    0 +0.0000000000e+00 +0.0000000000e+00 +4.4721471353e+01 1.0000100000e+04 1.0000000000e+04 0.0000e+00 1.0000e+00
  1000022 -1    0    0    0    0 -0.0000000000e+00 -0.0000000000e+00 -4.4721471353e+01 1.0000100000e+04 1.0000000000e+04 0.0000e+00 1.0000e+00
      -24  1    1    2    0    0 +8.3460785994e+03 -4.9222797086e+03 -1.6038703587e+03 9.8216413250e+03 7.9829010000e+01 0.0000e+00 -1.0000e+00
       24  1    1    2    0    0 -1.4477065164e+02 +1.0137614630e+02 +6.5745793591e+01 2.0477022447e+02 7.9829010000e+01 0.0000e+00 -1.0000e+00
       22  1    1    2    0    0 -8.3440060607e+03 +4.8885061090e+03 +1.6040106991e+03 9.8026924588e+03 0.0000000000e+00 0.0000e+00 -1.0000e+00
       22  1    1    2    0    0 +1.4269811291e+02 -6.7602546664e+01 -6.5886133940e+01 1.7109599174e+02 0.0000000000e+00 0.0000e+00 -1.0000e+00
</event>
<event>
 6      1 +1.4834189e-01 1.00023800e+04 7.81653100e-03 6.93858200e-02
  1000022 -1    0    0    0    0 +0.0000000000e+00 +0.0000000000e+00 +4.4721471353e+01 1.0000100000e+04 1.0000000000e+04 0.0000e+00 1.0000e+00
  1000022 -1    0    0    0    0 -0.0000000000e+00 -0.0000000000e+00 -4.4721471353e+01 1.0000100000e+04 1.0000000000e+04 0.0000e+00 1.0000e+00
      -24  1    1    2    0    0 +7.1163375700e+03 +2.1841727481e+03 +2.9744934406e+03 8.0166610819e+03 7.9829010000e+01 0.0000e+00 1.0000e+00
       24  1    1    2    0    0 -8.8439254344e+03 -2.6900654382e+03 -3.7121341921e+03 9.9618162040e+03 7.9829010000e+01 0.0000e+00 1.0000e+00
       22  1    1    2    0    0 -2.7791329568e+01 -2.7854601315e+01 -9.8556452657e+00 4.0563167494e+01 0.0000000000e+00 0.0000e+00 1.0000e+00
       22  1    1    2    0    0 +1.7553791940e+03 +5.3374729137e+02 +7.4749639680e+02 1.9811595466e+03 0.0000000000e+00 0.0000e+00 -1.0000e+00
</event>
<event>
 6      1 +1.4834189e-01 1.00751200e+04 7.81653100e-03 6.93420900e-02
  1000022 -1    0    0    0    0 +0.0000000000e+00 +0.0000000000e+00 +4.4721471353e+01 1.0000100000e+04 1.0000000000e+04 0.0000e+00 1.0000e+00
  1000022 -1    0    0    0    0 -0.0000000000e+00 -0.0000000000e+00 -4.4721471353e+01 1.0000100000e+04 1.0000000000e+04 0.0000e+00 1.0000e+00
      -24  1    1    2    0    0 -5.8930915189e+03 +2.0632054513e+01 +6.4399076167e+03 8.7297042398e+03 7.9829010000e+01 0.0000e+00 -1.0000e+00
       24  1    1    2    0    0 +6.5170097425e+03 -9.7190886677e+01 -7.4846462752e+03 9.9250775608e+03 7.9829010000e+01 0.0000e+00 -1.0000e+00
       22  1    1    2    0    0 -7.2180706457e+02 -2.4316385645e+00 +8.8059294637e+02 1.1386199052e+03 0.0000000000e+00 0.0000e+00 -1.0000e+00
       22  1    1    2    0    0 +9.7888840958e+01 +7.8990470729e+01 +1.6414571220e+02 2.0679829420e+02 0.0000000000e+00 0.0000e+00 1.0000e+00
</event>
<event>
 6      1 +1.4834189e-01 1.00180900e+04 7.81653100e-03 6.93763400e-02
  1000022 -1    0    0    0    0 +0.0000000000e+00 +0.0000000000e+00 +4.4721471353e+01 1.0000100000e+04 1.0000000000e+04 0.0000e+00 -1.0000e+00
  1000022 -1    0    0    0    0 -0.0000000000e+00 -0.0000000000e+00 -4.4721471353e+01 1.0000100000e+04 1.0000000000e+04 0.0000e+00 -1.0000e+00
      -24  1    1    2    0    0 +7.2346313605e+03 +6.8652833853e+03 -4.0506397220e+02 9.9821068105e+03 7.9829010000e+01 0.0000e+00 1.0000e+00
       24  1    1    2    0    0 -6.7540781775e+03 -6.4648022379e+03 +3.6144881693e+02 9.3567226058e+03 7.9829010000e+01 0.0000e+00 1.0000e+00
       22  1    1    2    0    0 -5.9723015731e+01 +9.5990119915e+00 +4.2239037615e+01 7.3777475817e+01 0.0000000000e+00 0.0000e+00 -1.0000e+00
       22  1    1    2    0    0 -4.2083016725e+02 -4.1008015944e+02 +1.3761176581e+00 5.8759310797e+02 0.0000000000e+00 0.0000e+00 1.0000e+00
</event>
<event>
 6      1 +1.4834189e-01 1.17082000e+04 7.81653100e-03 6.84480500e-02
  1000022 -1    0    0    0    0 +0.0000000000e+00 +0.0000000000e+00 +4.4721471353e+01 1.0000100000e+04 1.0000000000e+04 0.0000e+00 -1.0000e+00
  1000022 -1    0    0    0    0 -0.0000000000e+00 -0.0000000000e+00 -4.4721471353e+01 1.0000100000e+04 1.0000000000e+04 0.0000e+00 -1.0000e+00
      -24  1    1    2    0    0 +6.9613944442e+02 +7.7638205590e+03 +1.0396384943e+03 7.8643970315e+03 7.9829010000e+01 0.0000e+00 -1.0000e+00
       24  1    1    2    0    0 +3.0903736964e+03 -7.5259995812e+03 -8.0615017339e+02 8.1760216519e+03 7.9829010000e+01 0.0000e+00 -1.0000e+00
       22  1    1    2    0    0 +4.8708962003e+01 -1.0428347472e+02 -1.4260279980e+01 1.1597828101e+02 0.0000000000e+00 0.0000e+00 -1.0000e+00
       22  1    1    2    0    0 -3.8352221028e+03 -1.3353750315e+02 -2.1922804094e+02 3.8438030356e+03 0.0000000000e+00 0.0000e+00 -1.0000e+00
</event>
<event>
 6      1 +1.4834189e-01 1.00020700e+04 7.81653100e-03 6.93860000e-02
  1000022 -1    0    0    0    0 +0.0000000000e+00 +0.0000000000e+00 +4.4721471353e+01 1.0000100000e+04 1.0000000000e+04 0.0000e+00 1.0000e+00
  1000022 -1    0    0    0    0 -0.0000000000e+00 -0.0000000000e+00 -4.4721471353e+01 1.0000100000e+04 1.0000000000e+04 0.0000e+00 1.0000e+00
      -24  1    1    2    0    0 +6.7379296007e+03 -1.8040025962e+03 +9.2976544106e+02 7.0373970413e+03 7.9829010000e+01 0.0000e+00 1.0000e+00
       24  1    1    2    0    0 -8.8587561433e+03 +2.2555627549e+03 -9.8693224392e+02 9.1948644184e+03 7.9829010000e+01 0.0000e+00 1.0000e+00
       22  1    1    2    0    0 +2.8880592778e+03 -6.3719766648e+02 +2.0590551375e+02 2.9646760935e+03 0.0000000000e+00 0.0000e+00 -1.0000e+00
       22  1    1    2    0    0 -7.6723273526e+02 +1.8563750778e+02 -1.4873871089e+02 8.0326244682e+02 0.0000000000e+00 0.0000e+00 1.0000e+00
</event>
<event>
 6      1 +1.4834189e-01 9.69889400e+03 7.81653100e-03 6.95723600e-02
  1000022 -1    0    0    0    0 +0.0000000000e+00 +0.0000000000e+00 +4.4721471353e+01 1.0000100000e+04 1.0000000000e+04 0.0000e+00 1.0000e+00
  1000022 -1    0    0    0    0 -0.0000000000e+00 -0.0000000000e+00 -4.4721471353e+01 1.0000100000e+04 1.0000000000e+04 0.0000e+00 1.0000e+00
      -24  1    1    2    0    0 -4.8618587273e+01 -8.7812652024e+00 -9.4246796744e+01 1.3302634018e+02 7.9829010000e+01 0.0000e+00 -1.0000e+00
       24  1    1    2    0    0 -8.8438854230e+03 +2.8734712515e+02 +3.4283668862e+03 9.4898340303e+03 7.9829010000e+01 0.0000e+00 1.0000e+00
       22  1    1    2    0    0 +9.3468565169e+03 -1.9811905188e+02 -3.3014531462e+03 9.9147652913e+03 0.0000000000e+00 0.0000e+00 1.0000e+00
       22  1    1    2    0    0 -4.5435250661e+02 -8.0446808072e+01 -3.2666943243e+01 4.6257433821e+02 0.0000000000e+00 0.0000e+00 -1.0000e+00
</event>
<event>
 6      1 +1.4834189e-01 9.37924900e+03 7.81653100e-03 6.97764200e-02
  1000022 -1    0    0    0    0 +0.0000000000e+00 +0.0000000000e+00 +4.4721471353e+01 1.0000100000e+04 1.0000000000e+04 0.0000e+00 -1.0000e+00
  1000022 -1    0    0    0    0 -0.0000000000e+00 -0.0000000000e+00 -4.4721471353e+01 1.0000100000e+04 1.0000000000e+04 0.0000e+00 -1.0000e+00
      -24  1    1    2    0    0 -4.7942017109e+03 +3.9892886158e+02 +8.3737787008e+03 9.6576423977e+03 7.9829010000e+01 0.0000e+00 1.0000e+00
       24  1    1    2    0    0 +7.1070389513e+02 -7.5354775858e+02 -2.6750367519e+02 1.0727838264e+03 7.9829010000e+01 0.0000e+00 1.0000e+00
       22  1    1    2    0    0 +7.8045140220e+01 -5.6299617012e+01 +9.3855082106e+01 1.3442271841e+02 0.0000000000e+00 0.0000e+00 1.0000e+00
       22  1    1    2    0    0 +4.0054526755e+03 +4.1091851401e+02 -8.2001301077e+03 9.1353510575e+03 0.0000000000e+00 0.0000e+00 1.0000e+00
</event>
<event>
 6      1 +1.4834189e-01 1.00001400e+04 7.81653100e-03 6.93871700e-02
  1000022 -1    0    0    0    0 +0.0000000000e+00 +0.0000000000e+00 +4.4721471353e+01 1.0000100000e+04 1.0000000000e+04 0.0000e+00 1.0000e+00
  1000022 -1    0    0    0    0 -0.0000000000e+00 -0.0000000000e+00 -4.4721471353e+01 1.0000100000e+04 1.0000000000e+04 0.0000e+00 1.0000e+00
      -24  1    1    2    0    0 +8.7803029677e+03 +3.4187748592e+03 +3.2629787924e+03 9.9717172550e+03 7.9829010000e+01 0.0000e+00 -1.0000e+00
       24  1    1    2    0    0 -8.6698882418e+03 -3.3650998565e+03 -3.2292482767e+03 9.8450635484e+03 7.9829010000e+01 0.0000e+00 -1.0000e+00
       22  1    1    2    0    0 +2.3023236355e+01 +9.1109135580e+00 +1.3964718075e+01 2.8426950400e+01 0.0000000000e+00 0.0000e+00 -1.0000e+00
       22  1    1    2    0    0 -1.3343796226e+02 -6.2785916288e+01 -4.7695233772e+01 1.5499224619e+02 0.0000000000e+00 0.0000e+00 -1.0000e+00
</event>
<event>
 6      1 +1.4834189e-01 1.01027900e+04 7.81653100e-03 6.93255600e-02
  1000022 -1    0    0    0    0 +0.0000000000e+00 +0.0000000000e+00 +4.4721471353e+01 1.0000100000e+04 1.0000000000e+04 0.0000e+00 -1.0000e+00
  1000022 -1    0    0    0    0 -0.0000000000e+00 -0.0000000000e+00 -4.4721471353e+01 1.0000100000e+04 1.0000000000e+04 0.0000e+00 -1.0000e+00
      -24  1    1    2    0    0 -4.5384132290e+03 +8.3540421521e+03 +1.2276842279e+03 9.5864902937e+03 7.9829010000e+01 0.0000e+00 1.0000e+00
       24  1    1    2    0    0 -5.0963169330e+01 -6.3532767818e+02 -4.4093557426e+02 7.7912473634e+02 7.9829010000e+01 0.0000e+00 1.0000e+00
       22  1    1    2    0    0 +4.7260373275e+03 -7.9933835151e+03 -8.3728807239e+02 9.3236613064e+03 0.0000000000e+00 0.0000e+00 1.0000e+00
       22  1    1    2    0    0 -1.3666092913e+02 +2.7466904119e+02 +5.0539418713e+01 3.1092366360e+02 0.0000000000e+00 0.0000e+00 1.0000e+00
</event>
<event>
 6      1 +1.4834189e-01 1.00002900e+04 7.81653100e-03 6.93870800e-02
  1000022 -1    0    0    0    0 +0.0000000000e+00 +0.0000000000e+00 +4.4721471353e+01 1.0000100000e+04 1.0000000000e+04 0.0000e+00 -1.0000e+00
  1000022 -1    0    0    0    0 -0.0000000000e+00 -0.0000000000e+00 -4.4721471353e+01 1.0000100000e+04 1.0000000000e+04 0.0000e+00 -1.0000e+00
      -24  1    1    2    0    0 -2.1341785643e+03 -9.1096602675e+03 +1.6046232018e+03 9.4932511093e+03 7.9829010000e+01 0.0000e+00 1.0000e+00
       24  1    1    2    0    0 +2.1008365979e+03 +9.0475041564e+03 -1.5729989339e+03 9.4208037974e+03 7.9829010000e+01 0.0000e+00 1.0000e+00
       22  1    1    2    0    0 +1.3686288279e+02 +5.5030809487e+02 -1.1932190892e+02 5.7948957360e+02 0.0000000000e+00 0.0000e+00 1.0000e+00
       22  1    1    2    0    0 -1.0352091639e+02 -4.8815198379e+02 +8.7697641021e+01 5.0665551970e+02 0.0000000000e+00 0.0000e+00 -1.0000e+00
</event>
<event>
 6      1 +1.4834189e-01 1.04710000e+04 7.81653100e-03 6.91104700e-02
  1000022 -1    0    0    0    0 +0.0000000000e+00 +0.0000000000e+00 +4.4721471353e+01 1.0000100000e+04 1.0000000000e+04 0.0000e+00 1.0000e+00
  1000022 -1    0    0    0    0 -0.0000000000e+00 -0.0000000000e+00 -4.4721471353e+01 1.0000100000e+04 1.0000000000e+04 0.0000e+00 1.0000e+00
      -24  1    1    2    0    0 -5.2679031858e+03 -4.2814112200e+03 -6.7903247986e+01 6.7891287756e+03 7.9829010000e+01 0.0000e+00 1.0000e+00
       24  1    1    2    0    0 +7.0873686933e+03 +5.7344472081e+03 +2.7721016801e+03 9.5291972470e+03 7.9829010000e+01 0.0000e+00 1.0000e+00
       22  1    1    2    0    0 -1.5101223825e+03 -1.2584249286e+03 -2.6689304493e+03 3.3147085323e+03 0.0000000000e+00 0.0000e+00 1.0000e+00
       22  1    1    2    0    0 -3.0934312501e+02 -1.9461105946e+02 -3.5267982864e+01 3.6716544509e+02 0.0000000000e+00 0.0000e+00 -1.0000e+00
</event>
<event>
 6      1 +1.4834189e-01 1.01464500e+04 7.81653100e-03 6.92995800e-02
  1000022 -1    0    0    0    0 +0.0000000000e+00 +0.0000000000e+00 +4.4721471353e+01 1.0000100000e+04 1.0000000000e+04 0.0000e+00 -1.0000e+00
  1000022 -1    0    0    0    0 -0.0000000000e+00 -0.0000000000e+00 -4.4721471353e+01 1.0000100000e+04 1.0000000000e+04 0.0000e+00 -1.0000e+00
      -24  1    1    2    0    0 +2.3969546442e+03 -6.9716330959e+03 +6.5015969842e+03 9.8298624409e+03 7.9829010000e+01 0.0000e+00 -1.0000e+00
       24  1    1    2    0    0 -7.7741258470e+02 +4.6338390755e+03 -5.1604087191e+03 6.9794717367e+03 7.9829010000e+01 0.0000e+00 -1.0000e+00
       22  1    1    2    0    0 +6.1481091511e+00 -1.7552670561e+01 +1.4991183077e+01 2.3887885214e+01 0.0000000000e+00 0.0000e+00 -1.0000e+00
       22  1    1    2    0    0 -1.6256901687e+03 +2.3553466910e+03 -1.3561794483e+03 3.1669779372e+03 0.0000000000e+00 0.0000e+00 1.0000e+00
</event>
<event>
 6      1 +1.4834189e-01 1.00136600e+04 7.81653100e-03 6.93790100e-02
  1000022 -1    0    0    0    0 +0.0000000000e+00 +0.0000000000e+00 +4.4721471353e+01 1.0000100000e+04 1.0000000000e+04 0.0000e+00 1.0000e+00
  1000022 -1    0    0    0    0 -0.0000000000e+00 -0.0000000000e+00 -4.4721471353e+01 1.0000100000e+04 1.0000000000e+04 0.0000e+00 1.0000e+00
      -24  1    1    2    0    0 +3.1780710693e+03 -7.1767079608e+03 +5.4771797269e+03 9.5713710255e+03 7.9829010000e+01 0.0000e+00 -1.0000e+00
       24  1    1    2    0    0 -1.8130254950e+02 +4.3421572624e+02 -1.9724586313e+02 5.1642280423e+02 7.9829010000e+01 0.0000e+00 -1.0000e+00
       22  1    1    2    0    0 -2.9395025133e+03 +7.0846569593e+03 -5.5542801575e+03 9.4701144303e+03 0.0000000000e+00 0.0000e+00 -1.0000e+00
       22  1    1    2    0    0 -5.7266006494e+01 -3.4216472470e+02 +2.7434629366e+02 4.4229173989e+02 0.0000000000e+00 0.0000e+00 -1.0000e+00
</event>
<event>
 6      1 +1.4834189e-01 1.01536100e+04 7.81653100e-03 6.92953300e-02
  1000022 -1    0    0    0    0 +0.0000000000e+00 +0.0000000000e+00 +4.4721471353e+01 1.0000100000e+04 1.0000000000e+04 0.0000e+00 -1.0000e+00
  1000022 -1    0    0    0    0 -0.0000000000e+00 -0.0000000000e+00 -4.4721471353e+01 1.0000100000e+04 1.0000000000e+04 0.0000e+00 -1.0000e+00
      -24  1    1    2    0    0 -4.8458023239e+02 -9.1145908064e+03 -9.3804083074e+02 9.1758856162e+03 7.9829010000e+01 0.0000e+00 1.0000e+00
       24  1    1    2    0    0 +5.0335871735e+02 +3.6204680691e+02 -2.0794593854e+02 6.5883387354e+02 7.9829010000e+01 0.0000e+00 1.0000e+00
       22  1    1    2    0    0 -6.6201117464e+01 -6.6232465426e+02 -8.2360684300e+01 6.7070098995e+02 0.0000000000e+00 0.0000e+00 1.0000e+00
       22  1    1    2    0    0 +4.7422632506e+01 +9.4148686538e+03 +1.2283474536e+03 9.4947795204e+03 0.0000000000e+00 0.0000e+00 1.0000e+00
</event>
<event>
 6      1 +1.4834189e-01 1.00284200e+04 7.81653100e-03 6.93701200e-02
  1000022 -1    0    0    0    0 +0.0000000000e+00 +0.0000000000e+00 +4.4721471353e+01 1.0000100000e+04 1.0000000000e+04 0.0000e+00 1.0000e+00
  1000022 -1    0    0    0    0 -0.0000000000e+00 -0.0000000000e+00 -4.4721471353e+01 1.0000100000e+04 1.0000000000e+04 0.0000e+00 1.0000e+00
      -24  1    1    2    0    0 -5.7881190170e+03 +4.1115993637e+03 +6.8923555882e+03 9.8953781791e+03 7.9829010000e+01 0.0000e+00 1.0000e+00
       24  1    1    2    0    0 +1.5788220383e+03 -9.6697221530e+02 -1.8844188321e+03 2.6429380052e+03 7.9829010000e+01 0.0000e+00 0.0000e+00
       22  1    1    2    0    0 -1.0802538863e+02 -6.0963165005e+01 +4.8112340067e+01 1.3304431345e+02 0.0000000000e+00 0.0000e+00 1.0000e+00
       22  1    1    2    0    0 +4.3173223673e+03 -3.0836639834e+03 -5.0560490962e+03 7.3288395022e+03 0.0000000000e+00 0.0000e+00 1.0000e+00
</event>
<event>
 6      1 +1.4834189e-01 1.14755000e+04 7.81653100e-03 6.85661700e-02
  1000022 -1    0    0    0    0 +0.0000000000e+00 +0.0000000000e+00 +4.4721471353e+01 1.0000100000e+04 1.0000000000e+04 0.0000e+00 -1.0000e+00
  1000022 -1    0    0    0    0 -0.0000000000e+00 -0.0000000000e+00 -4.4721471353e+01 1.0000100000e+04 1.0000000000e+04 0.0000e+00 -1.0000e+00
      -24  1    1    2    0    0 -5.4746587105e+02 +8.3007663093e+03 -1.5147819882e+03 8.4559669668e+03 7.9829010000e+01 0.0000e+00 1.0000e+00
       24  1    1    2    0    0 -1.9184469235e+03 -7.3334994235e+03 +3.3728172585e+03 8.2971634504e+03 7.9829010000e+01 0.0000e+00 1.0000e+00
       22  1    1    2    0    0 +2.4158940658e+03 -9.8590862308e+02 -1.8147433716e+03 3.1783413056e+03 0.0000000000e+00 0.0000e+00 1.0000e+00
       22  1    1    2    0    0 +5.0018728748e+01 +1.8641737307e+01 -4.3291898710e+01 6.8728277218e+01 0.0000000000e+00 0.0000e+00 -1.0000e+00
</event>
<event>
 6      1 +1.4834189e-01 1.00909900e+04 7.81653100e-03 6.93326100e-02
  1000022 -1    0    0    0    0 +0.0000000000e+00 +0.0000000000e+00 +4.4721471353e+01 1.0000100000e+04 1.0000000000e+04 0.0000e+00 1.0000e+00
  1000022 -1    0    0    0    0 -0.0000000000e+00 -0.0000000000e+00 -4.4721471353e+01 1.0000100000e+04 1.0000000000e+04 0.0000e+00 1.0000e+00
      -24  1    1    2    0    0 +3.1255474651e+03 -3.7763264055e+03 +7.4501339886e+03 8.9185512947e+03 7.9829010000e+01 0.0000e+00 -1.0000e+00
       24  1    1    2    0    0 -4.0976406771e+02 +3.5722521622e+02 -1.0642224007e+03 1.1976887890e+03 7.9829010000e+01 0.0000e+00 0.0000e+00
       22  1    1    2    0    0 -2.4043598574e+03 +3.9923248779e+03 -7.3600973066e+03 8.7115232088e+03 0.0000000000e+00 0.0000e+00 -1.0000e+00
       22  1    1    2    0    0 -3.1142353993e+02 -5.7322368866e+02 +9.7418571876e+02 1.1724367075e+03 0.0000000000e+00 0.0000e+00 -1.0000e+00
</event>
<event>
 6      1 +1.4834189e-01 1.00003500e+04 7.81653100e-03 6.93870500e-02
  1000022 -1    0    0    0    0 +0.0000000000e+00 +0.0000000000e+00 +4.4721471353e+01 1.0000100000e+04 1.0000000000e+04 0.0000e+00 -1.0000e+00
  1000022 -1    0    0    0    0 -0.0000000000e+00 -0.0000000000e+00 -4.4721471353e+01 1.0000100000e+04 1.0000000000e+04 0.0000e+00 -1.0000e+00
      -24  1    1    2    0    0 -6.4716462715e+03 +2.3064563494e+03 -7.1074929192e+03 9.8855841821e+03 7.9829010000e+01 0.0000e+00 -1.0000e+00
       24  1    1    2    0    0 +6.5194783902e+03 -2.3249790072e+03 +7.1573923696e+03 9.9570961664e+03 7.9829010000e+01 0.0000e+00 -1.0000e+00
       22  1    1    2    0    0 -7.1755516638e+01 +2.5033254574e+01 -8.5336161010e+01 1.1427063655e+02 0.0000000000e+00 0.0000e+00 -1.0000e+00
       22  1    1    2    0    0 +2.3923397894e+01 -6.5105967257e+00 +3.5436710571e+01 4.3249014932e+01 0.0000000000e+00 0.0000e+00 1.0000e+00
</event>
<event>
 6      1 +1.4834189e-01 1.00967700e+04 7.81653100e-03 6.93291500e-02
  1000022 -1    0    0    0    0 +0.0000000000e+00 +0.0000000000e+00 +4.4721471353e+01 1.0000100000e+04 1.0000000000e+04 0.0000e+00 -1.0000e+00
  1000022 -1    0    0    0    0 -0.0000000000e+00 -0.0000000000e+00 -4.4721471353e+01 1.0000100000e+04 1.0000000000e+04 0.0000e+00 -1.0000e+00
      -24  1    1    2    0    0 -7.9704927420e+03 +4.1048654196e+03 -3.0753753108e+03 9.4785537208e+03 7.9829010000e+01 0.0000e+00 1.0000e+00
       24  1    1    2    0    0 +8.1524481026e+03 -4.7055922051e+03 +2.9760751128e+03 9.8726087643e+03 7.9829010000e+01 0.0000e+00 1.0000e+00
       22  1    1    2    0    0 -2.7785357560e+00 +1.3401789724e+01 +2.7613195181e+01 3.0819097600e+01 0.0000000000e+00 0.0000e+00 -1.0000e+00
       22  1    1    2    0    0 -1.7917682477e+02 +5.8732499571e+02 +7.1687002807e+01 6.1821841730e+02 0.0000000000e+00 0.0000e+00 1.0000e+00
</event>
<event>
 6      1 +1.4834189e-01 1.02908500e+04 7.81653100e-03 6.92145700e-02
  1000022 -1    0    0    0    0 +0.0000000000e+00 +0.0000000000e+00 +4.4721471353e+01 1.0000100000e+04 1.0000000000e+04 0.0000e+00 -1.0000e+00
  1000022 -1    0    0    0    0 -0.0000000000e+00 -0.0000000000e+00 -4.4721471353e+01 1.0000100000e+04 1.0000000000e+04 0.0000e+00 -1.0000e+00
      -24  1    1    2    0    0 -6.1121362847e+03 +7.1560737722e+03 +4.8576643528e+02 9.4239027742e+03 7.9829010000e+01 0.0000e+00 1.0000e+00
       24  1    1    2    0    0 +6.8777203126e+03 -6.7922187379e+03 -3.8896592148e+02 9.6744477486e+03 7.9829010000e+01 0.0000e+00 1.0000e+00
       22  1    1    2    0    0 -7.9165266395e+02 -3.4101057112e+02 -9.2710629620e+01 8.6694717878e+02 0.0000000000e+00 0.0000e+00 1.0000e+00
       22  1    1    2    0    0 +2.6068636013e+01 -2.2844463220e+01 -4.0898841813e+00 3.4902298434e+01 0.0000000000e+00 0.0000e+00 1.0000e+00
</event>
<event>
 6      1 +1.4834189e-01 1.02274300e+04 7.81653100e-03 6.92517300e-02
  1000022 -1    0    0    0    0 +0.0000000000e+00 +0.0000000000e+00 +4.4721471353e+01 1.0000100000e+04 1.0000000000e+04 0.0000e+00 1.0000e+00
  1000022 -1    0    0    0    0 -0.0000000000e+00 -0.0000000000e+00 -4.4721471353e+01 1.0000100000e+04 1.0000000000e+04 0.0000e+00 1.0000e+00
      -24  1    1    2    0    0 +1.0347005556e+03 +3.2762006342e+01 -1.1750107401e+03 1.5680247124e+03 7.9829010000e+01 0.0000e+00 -1.0000e+00
       24  1    1    2    0    0 -2.1941466632e+03 +4.7136159749e+03 +6.6620464141e+03 8.4511354404e+03 7.9829010000e+01 0.0000e+00 -1.0000e+00
       22  1    1    2    0    0 +1.5098932157e+03 -5.5110569979e+03 -6.5064368549e+03 8.6594022487e+03 0.0000000000e+00 0.0000e+00 -1.0000e+00
       22  1    1    2    0    0 -3.5044710808e+02 +7.6467901670e+02 +1.0194011809e+03 1.3216375985e+03 0.0000000000e+00 0.0000e+00 -1.0000e+00
</event>
<event>
 6      1 +1.4834189e-01 1.00138700e+04 7.81653100e-03 6.93788900e-02
  1000022 -1    0    0    0    0 +0.0000000000e+00 +0.0000000000e+00 +4.4721471353e+01 1.0000100000e+04 1.0000000000e+04 0.0000e+00 1.0000e+00
  1000022 -1    0    0    0    0 -0.0000000000e+00 -0.0000000000e+00 -4.4721471353e+01 1.0000100000e+04 1.0000000000e+04 0.0000e+00 1.0000e+00
      -24  1    1    2    0    0 +2.5099813415e+03 -8.0782639062e+02 -9.6316097204e+03 9.9863340766e+03 7.9829010000e+01 0.0000e+00 1.0000e+00
       24  1    1    2    0    0 -2.4382864552e+02 +2.2119582713e+02 +9.5701862913e+02 1.0152030977e+03 7.9829010000e+01 0.0000e+00 1.0000e+00
       22  1    1    2    0    0 -1.4128484611e+03 +1.1324305220e+02 +5.1373174631e+03 5.3292584362e+03 0.0000000000e+00 0.0000e+00 1.0000e+00
       22  1    1    2    0    0 -8.5330423490e+02 +4.7338751130e+02 +3.5372736281e+03 3.6694043895e+03 0.0000000000e+00 0.0000e+00 1.0000e+00
</event>
<event>
 6      1 +1.4834189e-01 1.12320200e+04 7.81653100e-03 6.86928200e-02
  1000022 -1    0    0    0    0 +0.0000000000e+00 +0.0000000000e+00 +4.4721471353e+01 1.0000100000e+04 1.0000000000e+04 0.0000e+00 -1.0000e+00
  1000022 -1    0    0    0    0 -0.0000000000e+00 -0.0000000000e+00 -4.4721471353e+01 1.0000100000e+04 1.0000000000e+04 0.0000e+00 -1.0000e+00
      -24  1    1    2    0    0 -7.9602767936e+02 +6.8588197596e+03 -1.2337052363e+03 7.0146610640e+03 7.9829010000e+01 0.0000e+00 1.0000e+00
       24  1    1    2    0    0 -3.1502422366e+03 -7.9023588752e+03 +2.1221020163e+03 8.7681806312e+03 7.9829010000e+01 0.0000e+00 1.0000e+00
       22  1    1    2    0    0 +1.8124315820e+01 +7.4516672951e+01 -2.1129071885e+01 7.9546609295e+01 0.0000000000e+00 0.0000e+00 1.0000e+00
       22  1    1    2    0    0 +3.9281456002e+03 +9.6902244268e+02 -8.6726770808e+02 4.1378116956e+03 0.0000000000e+00 0.0000e+00 1.0000e+00
</event>
<event>
 6      1 +1.4834189e-01 6.87665100e+03 7.81653100e-03 7.17255700e-02
  1000022 -1    0    0    0    0 +0.0000000000e+00 +0.0000000000e+00 +4.4721471353e+01 1.0000100000e+04 1.0000000000e+04 0.0000e+00 1.0000e+00
  1000022 -1    0    0    0    0 -0.0000000000e+00 -0.0000000000e+00 -4.4721471353e+01 1.0000100000e+04 1.0000000000e+04 0.0000e+00 1.0000e+00
      -24  1    1    2    0    0 +4.3169038797e+03 +4.2060788907e+03 -5.0347595733e+03 7.8537847802e+03 7.9829010000e+01 0.0000e+00 -1.0000e+00
       24  1    1    2    0    0 -4.0953149005e+03 -2.9175237342e+03 -1.5857827662e+03 5.2730094374e+03 7.9829010000e+01 0.0000e+00 -1.0000e+00
       22  1    1    2    0    0 -2.7472642705e+02 -1.3212503243e+03 +6.6627724530e+03 6.7980669157e+03 0.0000000000e+00 0.0000e+00 -1.0000e+00
       22  1    1    2    0    0 +5.3137447819e+01 +3.2695167811e+01 -4.2230113540e+01 7.5338866786e+01 0.0000000000e+00 0.0000e+00 -1.0000e+00
</event>
<event>
 6      1 +1.4834189e-01 1.00472000e+04 7.81653100e-03 6.93588300e-02
  1000022 -1    0    0    0    0 +0.0000000000e+00 +0.0000000000e+00 +4.4721471353e+01 1.0000100000e+04 1.0000000000e+04 0.0000e+00 -1.0000e+00
  1000022 -1    0    0    0    0 -0.0000000000e+00 -0.0000000000e+00 -4.4721471353e+01 1.0000100000e+04 1.0000000000e+04 0.0000e+00 -1.0000e+00
      -24  1    1    2    0    0 +6.4941456461e+02 -4.3803631498e+03 -3.3378275188e+03 5.5458800760e+03 7.9829010000e+01 0.0000e+00 1.0000e+00
       24  1    1    2    0    0 -1.0155236443e+02 +7.4229358092e+03 +6.4738629876e+03 9.8502570303e+03 7.9829010000e+01 0.0000e+00 1.0000e+00
       22  1    1    2    0    0 -5.3143868006e+02 -3.1228581428e+03 -3.1980043856e+03 4.5013222614e+03 0.0000000000e+00 0.0000e+00 1.0000e+00
       22  1    1    2    0    0 -1.6423520119e+01 +8.0285483416e+01 +6.1968916858e+01 1.0274063226e+02 0.0000000000e+00 0.0000e+00 -1.0000e+00
</event>
<event>
 6      1 +1.4834189e-01 1.00865800e+04 7.81653100e-03 6.93352400e-02
  1000022 -1    0    0    0    0 +0.0000000000e+00 +0.0000000000e+00 +4.4721471353e+01 1.0000100000e+04 1.0000000000e+04 0.0000e+00 1.0000e+00
  1000022 -1    0    0    0    0 -0.0000000000e+00 -0.0000000000e+00 -4.4721471353e+01 1.0000100000e+04 1.0000000000e+04 0.0000e+00 1.0000e+00
      -24  1    1    2    0    0 +1.3577700312e+03 -4.2396860631e+02 -9.9926557558e+02 1.7401704509e+03 7.9829010000e+01 0.0000e+00 -1.0000e+00
       24  1    1    2    0    0 -6.6520708059e+03 -1.4505078734e+03 +7.1519636588e+03 9.8747646020e+03 7.9829010000e+01 0.0000e+00 -1.0000e+00
       22  1    1    2    0    0 +5.3006112763e+03 +1.8452286504e+03 -6.1774807697e+03 8.3464134414e+03 0.0000000000e+00 0.0000e+00 -1.0000e+00
       22  1    1    2    0    0 -6.3105015525e+00 +2.9247829339e+01 +2.4782686414e+01 3.8851505721e+01 0.0000000000e+00 0.0000e+00 1.0000e+00
</event>
<event>
 6      1 +1.4834189e-01 9.81157300e+03 7.81653100e-03 6.95023100e-02
  1000022 -1    0    0    0    0 +0.0000000000e+00 +0.0000000000e+00 +4.4721471353e+01 1.0000100000e+04 1.0000000000e+04 0.0000e+00 -1.0000e+00
  1000022 -1    0    0    0    0 -0.0000000000e+00 -0.0000000000e+00 -4.4721471353e+01 1.0000100000e+04 1.0000000000e+04 0.0000e+00 -1.0000e+00
      -24  1    1    2    0    0 -2.3821725901e+02 -2.5587548141e+02 -1.7538990958e+02 3.9919170294e+02 7.9829010000e+01 0.0000e+00 1.0000e+00
       24  1    1    2    0    0 -1.6476516523e+03 +9.3301045711e+02 -2.7659248976e+02 1.9152390338e+03 7.9829010000e+01 0.0000e+00 1.0000e+00
       22  1    1    2    0    0 +7.9241944479e+03 -5.2448179831e+03 +2.5314096632e+03 9.8340738357e+03 0.0000000000e+00 0.0000e+00 1.0000e+00
       22  1    1    2    0    0 -6.0383255366e+03 +4.5676830074e+03 -2.0794272638e+03 7.8516954276e+03 0.0000000000e+00 0.0000e+00 1.0000e+00
</event>
<event>
 6      1 +1.4834189e-01 1.00329800e+04 7.81653100e-03 6.93673800e-02
  1000022 -1    0    0    0    0 +0.0000000000e+00 +0.0000000000e+00 +4.4721471353e+01 1.0000100000e+04 1.0000000000e+04 0.0000e+00 1.0000e+00
  1000022 -1    0    0    0    0 -0.0000000000e+00 -0.0000000000e+00 -4.4721471353e+01 1.0000100000e+04 1.0000000000e+04 0.0000e+00 1.0000e+00
      -24  1    1    2    0    0 +9.6885424899e+02 -4.1549613761e+03 +8.8785519437e+03 9.8507583404e+03 7.9829010000e+01 0.0000e+00 1.0000e+00
       24  1    1    2    0    0 -9.6460531501e+02 +4.0472081699e+03 -8.9797101057e+03 9.8970664157e+03 7.9829010000e+01 0.0000e+00 1.0000e+00
       22  1    1    2    0    0 -8.5993722377e+00 +2.9198732517e+01 -6.3205169633e+01 7.0152752275e+01 0.0000000000e+00 0.0000e+00 -1.0000e+00
       22  1    1    2    0    0 +4.3504382649e+00 +7.8554473770e+01 +1.6436333164e+02 1.8222249161e+02 0.0000000000e+00 0.0000e+00 -1.0000e+00
</event>
<event>
 6      1 +1.4834189e-01 1.00199100e+04 7.81653100e-03 6.93752500e-02
  1000022 -1    0    0    0    0 +0.0000000000e+00 +0.0000000000e+00 +4.4721471353e+01 1.0000100000e+04 1.0000000000e+04 0.0000e+00 -1.0000e+00
  1000022 -1    0    0    0    0 -0.0000000000e+00 -0.0000000000e+00 -4.4721471353e+01 1.0000100000e+04 1.0000000000e+04 0.0000e+00 -1.0000e+00
      -24  1    1    2    0    0 -6.6183299594e+02 +9.5788383018e+03 +1.4782349543e+03 9.7151282738e+03 7.9829010000e+01 0.0000e+00 1.0000e+00
       24  1    1    2    0    0 +6.9450035529e+02 -9.7352776273e+03 -1.6527493646e+03 9.8992885783e+03 7.9829010000e+01 0.0000e+00 1.0000e+00
       22  1    1    2    0    0 -3.9297442331e+01 +2.3586625271e+02 +1.8897785905e+02 3.0477829541e+02 0.0000000000e+00 0.0000e+00 1.0000e+00
       22  1    1    2    0    0 +6.6300829776e+00 -7.9426927202e+01 -1.4463448811e+01 8.1004852426e+01 0.0000000000e+00 0.0000e+00 1.0000e+00
</event>
<event>
 6      1 +1.4834189e-01 1.11223100e+04 7.81653100e-03 6.87509400e-02
  1000022 -1    0    0    0    0 +0.0000000000e+00 +0.0000000000e+00 +4.4721471353e+01 1.0000100000e+04 1.0000000000e+04 0.0000e+00 1.0000e+00
  1000022 -1    0    0    0    0 -0.0000000000e+00 -0.0000000000e+00 -4.4721471353e+01 1.0000100000e+04 1.0000000000e+04 0.0000e+00 1.0000e+00
      -24  1    1    2    0    0 -1.6786053008e+03 -3.6879836635e+03 +3.7642441761e+03 5.5312608099e+03 7.9829010000e+01 0.0000e+00 -1.0000e+00
       24  1    1    2    0    0 +9.9102917480e+02 +4.6497410477e+03 -7.1897873549e+03 8.6198402256e+03 7.9829010000e+01 0.0000e+00 -1.0000e+00
       22  1    1    2    0    0 -1.0665529040e+03 -2.2720109600e+03 +2.2136729403e+03 3.3466276737e+03 0.0000000000e+00 0.0000e+00 1.0000e+00
       22  1    1    2    0    0 +1.7541290300e+03 +1.3102535758e+03 +1.2118702384e+03 2.5024712909e+03 0.0000000000e+00 0.0000e+00 -1.0000e+00
</event>
<event>
 6      1 +1.4834189e-01 1.00075400e+04 7.81653100e-03 6.93827000e-02
  1000022 -1    0    0    0    0 +0.0000000000e+00 +0.0000000000e+00 +4.4721471353e+01 1.0000100000e+04 1.0000000000e+04 0.0000e+00 1.0000e+00
  1000022 -1    0    0    0    0 -0.0000000000e+00 -0.0000000000e+00 -4.4721471353e+01 1.0000100000e+04 1.0000000000e+04 0.0000e+00 1.0000e+00
      -24  1    1    2    0    0 +2.4121964373e+02 -8.1152473839e+03 +5.6148500109e+03 9.8715925935e+03 7.9829010000e+01 0.0000e+00 1.0000e+00
       24  1    1    2    0    0 -2.8197948085e+02 +8.2100669592e+03 -5.6887738474e+03 9.9926589284e+03 7.9829010000e+01 0.0000e+00 1.0000e+00
       22  1    1    2    0    0 +3.0385700208e+01 -1.6455354530e+01 +1.6815329607e+01 3.8429478004e+01 0.0000000000e+00 0.0000e+00 1.0000e+00
       22  1    1    2    0    0 +1.0374136913e+01 -7.8364220792e+01 +5.7108506882e+01 9.7519000073e+01 0.0000000000e+00 0.0000e+00 1.0000e+00
</event>
<event>
 6      1 +1.4834189e-01 1.05347000e+04 7.81653100e-03 6.90741600e-02
  1000022 -1    0    0    0    0 +0.0000000000e+00 +0.0000000000e+00 +4.4721471353e+01 1.0000100000e+04 1.0000000000e+04 0.0000e+00 1.0000e+00
  1000022 -1    0    0    0    0 -0.0000000000e+00 -0.0000000000e+00 -4.4721471353e+01 1.0000100000e+04 1.0000000000e+04 0.0000e+00 1.0000e+00
      -24  1    1    2    0    0 -7.2756883149e+03 +2.2100446257e+03 +1.5753609604e+03 7.7658272276e+03 7.9829010000e+01 0.0000e+00 -1.0000e+00
       24  1    1    2    0    0 +4.9606565027e+02 -1.8432821072e+02 -1.0915093488e+02 5.4620931525e+02 7.9829010000e+01 0.0000e+00 -1.0000e+00
       22  1    1    2    0    0 +7.3227818329e+03 -3.3458166486e+03 -3.8387586756e+03 8.9192875830e+03 0.0000000000e+00 0.0000e+00 -1.0000e+00
       22  1    1    2    0    0 -5.4315916830e+02 +1.3201002336e+03 +2.3725486501e+03 2.7688758741e+03 0.0000000000e+00 0.0000e+00 -1.0000e+00
</event>
<event>
 6      1 +1.4834189e-01 1.01982500e+04 7.81653100e-03 6.92689200e-02
  1000022 -1    0    0    0    0 +0.0000000000e+00 +0.0000000000e+00 +4.4721471353e+01 1.0000100000e+04 1.0000000000e+04 0.0000e+00 -1.0000e+00
  1000022 -1    0    0    0    0 -0.0000000000e+00 -0.0000000000e+00 -4.4721471353e+01 1.0000100000e+04 1.0000000000e+04 0.0000e+00 -1.0000e+00
      -24  1    1    2    0    0 -7.3640536946e+02 +8.3433958928e+02 +1.1012154307e+03 1.5676299034e+03 7.9829010000e+01 0.0000e+00 -1.0000e+00
       24  1    1    2    0    0 -2.5953817995e+03 -6.9224422171e+03 -5.7624503985e+03 9.3738156693e+03 7.9829010000e+01 0.0000e+00 -1.0000e+00
       22  1    1    2    0    0 -5.8612225944e+01 -4.1082653823e+02 +1.0527687552e+02 4.2813205680e+02 0.0000000000e+00 0.0000e+00 -1.0000e+00
       22  1    1    2    0    0 +3.3903993950e+03 +6.4989291661e+03 +4.5559580923e+03 8.6306223705e+03 0.0000000000e+00 0.0000e+00 -1.0000e+00
</event>
<event>
 6      1 +1.4834189e-01 1.00016300e+04 7.81653100e-03 6.93862700e-02
  1000022 -1    0    0    0    0 +0.0000000000e+00 +0.0000000000e+00 +4.4721471353e+01 1.0000100000e+04 1.0000000000e+04 0.0000e+00 1.0000e+00
  1000022 -1    0    0    0    0 -0.0000000000e+00 -0.0000000000e+00 -4.4721471353e+01 1.0000100000e+04 1.0000000000e+04 0.0000e+00 1.0000e+00
      -24  1    1    2    0    0 -1.6978758272e+03 -9.8021961036e+03 +4.1037189639e+02 9.9569377091e+03 7.9829010000e+01 0.0000e+00 -1.0000e+00
       24  1    1    2    0    0 +1.7077227842e+03 +9.8425362870e+03 -4.1617884758e+02 9.9985706565e+03 7.9829010000e+01 0.0000e+00 -1.0000e+00
       22  1    1    2    0    0 +2.0029006743e+00 -1.8183934196e+01 +6.8744768886e+00 1.9542914482e+01 0.0000000000e+00 0.0000e+00 1.0000e+00
       22  1    1    2    0    0 -1.1849857744e+01 -2.2156249154e+01 -1.0675256952e+00 2.5148719972e+01 0.0000000000e+00 0.0000e+00 1.0000e+00
</event>
<event>
 6      1 +1.4834189e-01 1.00047600e+04 7.81653100e-03 6.93843800e-02
  1000022 -1    0    0    0    0 +0.0000000000e+00 +0.0000000000e+00 +4.4721471353e+01 1.0000100000e+04 1.0000000000e+04 0.0000e+00 -1.0000e+00
  1000022 -1    0    0    0    0 -0.0000000000e+00 -0.0000000000e+00 -4.4721471353e+01 1.0000100000e+04 1.0000000000e+04 0.0000e+00 -1.0000e+00
      -24  1    1    2    0    0 +4.3366308790e+03 -3.7435222003e+03 -8.1233520907e+03 9.9406009730e+03 7.9829010000e+01 0.0000e+00 1.0000e+00
       24  1    1    2    0    0 -4.3564009695e+03 +3.7464996984e+03 +8.1785106285e+03 9.9954438705e+03 7.9829010000e+01 0.0000e+00 1.0000e+00
       22  1    1    2    0    0 +1.1154583110e+01 +1.0524738570e+01 -3.6338830184e+01 3.9442431789e+01 0.0000000000e+00 0.0000e+00 -1.0000e+00
       22  1    1    2    0    0 +8.6155073480e+00 -1.3502236719e+01 -1.8819707656e+01 2.4712724648e+01 0.0000000000e+00 0.0000e+00 1.0000e+00
</event>
<event>
 6      1 +1.4834189e-01 1.00015000e+04 7.81653100e-03 6.93863500e-02
  1000022 -1    0    0    0    0 +0.0000000000e+00 +0.0000000000e+00 +4.4721471353e+01 1.0000100000e+04 1.0000000000e+04 0.0000e+00 1.0000e+00
  1000022 -1    0    0    0    0 -0.0000000000e+00 -0.0000000000e+00 -4.4721471353e+01 1.0000100000e+04 1.0000000000e+04 0.0000e+00 1.0000e+00
      -24  1    1    2    0    0 +2.7291138382e+03 -3.3914386699e+03 -8.9899378296e+03 9.9887573524e+03 7.9829010000e+01 0.0000e+00 1.0000e+00
       24  1    1    2    0    0 -2.5606712837e+03 +3.1718572412e+03 +8.2728866504e+03 9.2230549160e+03 7.9829010000e+01 0.0000e+00 1.0000e+00
       22  1    1    2    0    0 +9.5430204864e+00 -7.9651904118e+00 -2.7913264743e+00 1.2739898029e+01 0.0000000000e+00 0.0000e+00 -1.0000e+00
       22  1    1    2    0    0 -1.7798557508e+02 +2.2754661915e+02 +7.1984250563e+02 7.7564783358e+02 0.0000000000e+00 0.0000e+00 1.0000e+00
</event>
<event>
 6      1 +1.4834189e-01 1.00528600e+04 7.81653100e-03 6.93554400e-02
  1000022 -1    0    0    0    0 +0.0000000000e+00 +0.0000000000e+00 +4.4721471353e+01 1.0000100000e+04 1.0000000000e+04 0.0000e+00 -1.0000e+00
  1000022 -1    0    0    0    0 -0.0000000000e+00 -0.0000000000e+00 -4.4721471353e+01 1.0000100000e+04 1.0000000000e+04 0.0000e+00 -1.0000e+00
      -24  1    1    2    0    0 -7.0772634436e+03 +1.2908608833e+03 -6.6524729814e+03 9.7987626316e+03 7.9829010000e+01 0.0000e+00 -1.0000e+00
       24  1    1    2    0    0 +3.3488802600e+02 +1.6704055579e+02 +6.8501725462e+02 7.8464886873e+02 7.9829010000e+01 0.0000e+00 -1.0000e+00
       22  1    1    2    0    0 -1.2215579966e+02 +2.7488830627e+01 -7.9986023156e+01 1.4857805727e+02 0.0000000000e+00 0.0000e+00 -1.0000e+00
       22  1    1    2    0    0 +6.8645312173e+03 -1.4853902697e+03 +6.0474417500e+03 9.2682104424e+03 0.0000000000e+00 0.0000e+00 -1.0000e+00
</event>
<event>
 6      1 +1.4834189e-01 1.02338100e+04 7.81653100e-03 6.92479800e-02
  1000022 -1    0    0    0    0 +0.0000000000e+00 +0.0000000000e+00 +4.4721471353e+01 1.0000100000e+04 1.0000000000e+04 0.0000e+00 1.0000e+00
  1000022 -1    0    0    0    0 -0.0000000000e+00 -0.0000000000e+00 -4.4721471353e+01 1.0000100000e+04 1.0000000000e+04 0.0000e+00 1.0000e+00
      -24  1    1    2    0    0 +7.3351646980e+03 -6.4469286158e+02 -5.7530581680e+03 9.3447483106e+03 7.9829010000e+01 0.0000e+00 1.0000e+00
       24  1    1    2    0    0 -7.2266891188e+03 +1.3312269022e+03 +5.8094304373e+03 9.3676600793e+03 7.9829010000e+01 0.0000e+00 1.0000e+00
       22  1    1    2    0    0 +3.4485378753e+02 +2.8040704006e+01 -2.4098806532e+02 4.2164637254e+02 0.0000000000e+00 0.0000e+00 -1.0000e+00
       22  1    1    2    0    0 -4.5332936672e+02 -7.1457474462e+02 +1.8461579598e+02 8.6614523754e+02 0.0000000000e+00 0.0000e+00 -1.0000e+00
</event>
<event>
 6      1 +1.4834189e-01 6.75159300e+03 7.81653100e-03 7.18443000e-02
  1000022 -1    0    0    0    0 +0.0000000000e+00 +0.0000000000e+00 +4.4721471353e+01 1.0000100000e+04 1.0000000000e+04 0.0000e+00 -1.0000e+00
  1000022 -1    0    0    0    0 -0.0000000000e+00 -0.0000000000e+00 -4.4721471353e+01 1.0000100000e+04 1.0000000000e+04 0.0000e+00 -1.0000e+00
      -24  1    1    2    0    0 -4.1844087426e+03 -1.6153709158e+03 -2.4799832593e+03 5.1259525318e+03 7.9829010000e+01 0.0000e+00 -1.0000e+00
       24  1    1    2    0    0 +4.9045075542e+03 +7.0581065573e+03 +6.1942740911e+01 8.5954215777e+03 7.9829010000e+01 0.0000e+00 -1.0000e+00
       22  1    1    2    0    0 -4.5175745115e+02 -5.3630526127e+03 +2.5657308618e+03 5.9623311697e+03 0.0000000000e+00 0.0000e+00 -1.0000e+00
       22  1    1    2    0    0 -2.6834136045e+02 -7.9683028726e+01 -1.4769034342e+02 3.1649472087e+02 0.0000000000e+00 0.0000e+00 1.0000e+00
</event>
<event>
 6      1 +1.4834189e-01 1.00942300e+04 7.81653100e-03 6.93306700e-02
  1000022 -1    0    0    0    0 +0.0000000000e+00 +0.0000000000e+00 +4.4721471353e+01 1.0000100000e+04 1.0000000000e+04 0.0000e+00 1.0000e+00
  1000022 -1    0    0    0    0 -0.0000000000e+00 -0.0000000000e+00 -4.4721471353e+01 1.0000100000e+04 1.0000000000e+04 0.0000e+00 1.0000e+00
      -24  1    1    2    0    0 +7.3112710348e+03 +3.4870635495e+03 +5.4232689162e+03 9.7484621737e+03 7.9829010000e+01 0.0000e+00 -1.0000e+00
       24  1    1    2    0    0 -7.2091077787e+03 -2.9016700310e+03 -4.4377800449e+03 8.9493680409e+03 7.9829010000e+01 0.0000e+00 -1.0000e+00
       22  1    1    2    0    0 +1.4930483684e+02 -4.9892742295e+01 -5.3334157690e+00 1.5751084204e+02 0.0000000000e+00 0.0000e+00 1.0000e+00
       22  1    1    2    0    0 -2.5146809293e+02 -5.3550077628e+02 -9.8015545555e+02 1.1448589434e+03 0.0000000000e+00 0.0000e+00 -1.0000e+00
</event>
<event>
 6      1 +1.4834189e-01 1.00028900e+04 7.81653100e-03 6.93855100e-02
  1000022 -1    0    0    0    0 +0.0000000000e+00 +0.0000000000e+00 +4.4721471353e+01 1.0000100000e+04 1.0000000000e+04 0.0000e+00 -1.0000e+00
  1000022 -1    0    0    0    0 -0.0000000000e+00 -0.0000000000e+00 -4.4721471353e+01 1.0000100000e+04 1.0000000000e+04 0.0000e+00 -1.0000e+00
      -24  1    1    2    0    0 -1.2540103890e+03 +9.6149607750e+02 -5.3500148174e+01 1.5831145566e+03 7.9829010000e+01 0.0000e+00 1.0000e+00
       24  1    1    2    0    0 +7.9385199501e+03 -5.8533633565e+03 -2.7586049476e+02 9.8673417527e+03 7.9829010000e+01 0.0000e+00 1.0000e+00
       22  1    1    2    0    0 +1.0290623488e+02 -7.9232672297e+01 -4.9421477287e+00 1.2996897461e+02 0.0000000000e+00 0.0000e+00 1.0000e+00
       22  1    1    2    0    0 -6.7874157960e+03 +4.9710999513e+03 +3.3430279066e+02 8.4197747161e+03 0.0000000000e+00 0.0000e+00 1.0000e+00
</event>
<event>
 6      1 +1.4834189e-01 1.00136400e+04 7.81653100e-03 6.93790300e-02
  1000022 -1    0    0    0    0 +0.0000000000e+00 +0.0000000000e+00 +4.4721471353e+01 1.0000100000e+04 1.0000000000e+04 0.0000e+00 -1.0000e+00
  1000022 -1    0    0    0    0 -0.0000000000e+00 -0.0000000000e+00 -4.4721471353e+01 1.0000100000e+04 1.0000000000e+04 0.0000e+00 -1.0000e+00
      -24  1    1    2    0    0 -3.6740779485e+03 -7.3358268065e+03 +4.0797915964e+03 9.1632022704e+03 7.9829010000e+01 0.0000e+00 1.0000e+00
       24  1    1    2    0    0 +3.9791760287e+03 +7.9819126613e+03 -4.4695117095e+03 9.9763560076e+03 7.9829010000e+01 0.0000e+00 1.0000e+00
       22  1    1    2    0    0 +1.9891386173e+01 -1.5140198309e+01 -2.7661962684e+01 3.7283736780e+01 0.0000000000e+00 0.0000e+00 -1.0000e+00
       22  1    1    2    0    0 -3.2498946629e+02 -6.3094565648e+02 +4.1738207579e+02 8.2335798521e+02 0.0000000000e+00 0.0000e+00 1.0000e+00
</event>
<event>
 6      1 +1.4834189e-01 1.00183200e+04 7.81653100e-03 6.93762000e-02
  1000022 -1    0    0    0    0 +0.0000000000e+00 +0.0000000000e+00 +4.4721471353e+01 1.0000100000e+04 1.0000000000e+04 0.0000e+00 1.0000e+00
  1000022 -1    0    0    0    0 -0.0000000000e+00 -0.0000000000e+00 -4.4721471353e+01 1.0000100000e+04 1.0000000000e+04 0.0000e+00 1.0000e+00
      -24  1    1    2    0    0 +2.8085519362e+03 -6.6005845669e+03 +2.5357247998e+03 7.6086762012e+03 7.9829010000e+01 0.0000e+00 1.0000e+00
       24  1    1    2    0    0 -3.6003698902e+03 +8.6630131166e+03 -3.3079175796e+03 9.9478214192e+03 7.9829010000e+01 0.0000e+00 1.0000e+00
       22  1    1    2    0    0 +8.0308201262e+02 -2.0685709594e+03 +8.4151782120e+02 2.3732001130e+03 0.0000000000e+00 0.0000e+00 -1.0000e+00
       22  1    1    2    0    0 -1.1264058608e+01 +6.1424097246e+00 -6.9325041453e+01 7.0502266531e+01 0.0000000000e+00 0.0000e+00 1.0000e+00
</event>
<event>
 6      1 +1.4834189e-01 1.00031500e+04 7.81653100e-03 6.93853500e-02
  1000022 -1    0    0    0    0 +0.0000000000e+00 +0.0000000000e+00 +4.4721471353e+01 1.0000100000e+04 1.0000000000e+04 0.0000e+00 1.0000e+00
  1000022 -1    0    0    0    0 -0.0000000000e+00 -0.0000000000e+00 -4.4721471353e+01 1.0000100000e+04 1.0000000000e+04 0.0000e+00 1.0000e+00
      -24  1    1    2    0    0 -5.8250881458e+03 -1.9911378729e+03 +5.9528693434e+03 8.5638372255e+03 7.9829010000e+01 0.0000e+00 -1.0000e+00
       24  1    1    2    0    0 +6.7921960767e+03 +2.4209982180e+03 -6.9238374529e+03 9.9970524486e+03 7.9829010000e+01 0.0000e+00 -1.0000e+00
       22  1    1    2    0    0 -9.5490228616e+02 -4.1711450274e+02 +9.6616721462e+02 1.4210214534e+03 0.0000000000e+00 0.0000e+00 1.0000e+00
       22  1    1    2    0    0 -1.2205644742e+01 -1.2745842383e+01 +4.8008949251e+00 1.8288872401e+01 0.0000000000e+00 0.0000e+00 1.0000e+00
</event>
<event>
 6      1 +1.4834189e-01 1.00069100e+04 7.81653100e-03 6.93830900e-02
  1000022 -1    0    0    0    0 +0.0000000000e+00 +0.0000000000e+00 +4.4721471353e+01 1.0000100000e+04 1.0000000000e+04 0.0000e+00 1.0000e+00
  1000022 -1    0    0    0    0 -0.0000000000e+00 -0.0000000000e+00 -4.4721471353e+01 1.0000100000e+04 1.0000000000e+04 0.0000e+00 1.0000e+00
      -24  1    1    2    0    0 +9.2152891975e+03 +8.6658437603e+02 -3.3026986380e+03 9.8278540098e+03 7.9829010000e+01 0.0000e+00 1.0000e+00
       24  1    1    2    0    0 -8.8745662373e+03 -7.6296045472e+02 +3.4794899773e+03 9.5631196651e+03 7.9829010000e+01 0.0000e+00 1.0000e+00
       22  1    1    2    0    0 -4.3017287173e+02 -1.0237945809e+02 -3.7623239672e+01 4.4378571538e+02 0.0000000000e+00 0.0000e+00 1.0000e+00
       22  1    1    2    0    0 +8.9449911606e+01 -1.2444632214e+00 -1.3916809964e+02 1.6544060968e+02 0.0000000000e+00 0.0000e+00 -1.0000e+00
</event>
<event>
 6      1 +1.4834189e-01 1.00019600e+04 7.81653100e-03 6.93860700e-02
  1000022 -1    0    0    0    0 +0.0000000000e+00 +0.0000000000e+00 +4.4721471353e+01 1.0000100000e+04 1.0000000000e+04 0.0000e+00 1.0000e+00
  1000022 -1    0    0    0    0 -0.0000000000e+00 -0.0000000000e+00 -4.4721471353e+01 1.0000100000e+04 1.0000000000e+04 0.0000e+00 1.0000e+00
      -24  1    1    2    0    0 -1.8346120938e+03 +4.9586493588e+03 +4.6531760919e+03 7.0436088343e+03 7.9829010000e+01 0.0000e+00 -1.0000e+00
       24  1    1    2    0    0 +2.3784652156e+03 -6.3415761837e+03 -6.1630500335e+03 9.1576330819e+03 7.9829010000e+01 0.0000e+00 -1.0000e+00
       22  1    1    2    0    0 +2.2242033292e+02 -5.1669215372e+02 -6.2463724271e+02 8.4060292124e+02 0.0000000000e+00 0.0000e+00 1.0000e+00
       22  1    1    2    0    0 -7.6627345468e+02 +1.8996189786e+03 +2.1345111844e+03 2.9583551625e+03 0.0000000000e+00 0.0000e+00 -1.0000e+00
</event>
<event>
 6      1 +1.4834189e-01 1.00004700e+04 7.81653100e-03 6.93869700e-02
  1000022 -1    0    0    0    0 +0.0000000000e+00 +0.0000000000e+00 +4.4721471353e+01 1.0000100000e+04 1.0000000000e+04 0.0000e+00 1.0000e+00
  1000022 -1    0    0    0    0 -0.0000000000e+00 -0.0000000000e+00 -4.4721471353e+01 1.0000100000e+04 1.0000000000e+04 0.0000e+00 1.0000e+00
      -24  1    1    2    0    0 -5.3868510743e+02 -2.3610214697e+03 +3.0572928303e+03 3.9010275757e+03 7.9829010000e+01 0.0000e+00 -1.0000e+00
       24  1    1    2    0    0 +6.8398248652e+02 +2.8280669448e+03 -3.7440013310e+03 4.7423320554e+03 7.9829010000e+01 0.0000e+00 -1.0000e+00
       22  1    1    2    0    0 -1.1779591404e+03 -3.5693793683e+03 +4.8036642647e+03 6.0994464650e+03 0.0000000000e+00 0.0000e+00 -1.0000e+00
       22  1    1    2    0    0 +1.0326617614e+03 +3.1023338931e+03 -4.1169557640e+03 5.2573939039e+03 0.0000000000e+00 0.0000e+00 -1.0000e+00
</event>
<event>
 6      1 +1.4834189e-01 1.00176900e+04 7.81653100e-03 6.93765800e-02
  1000022 -1    0    0    0    0 +0.0000000000e+00 +0.0000000000e+00 +4.4721471353e+01 1.0000100000e+04 1.0000000000e+04 0.0000e+00 1.0000e+00
  1000022 -1    0    0    0    0 -0.0000000000e+00 -0.0000000000e+00 -4.4721471353e+01 1.0000100000e+04 1.0000000000e+04 0.0000e+00 1.0000e+00
      -24  1    1    2    0    0 +4.7355305155e+03 +5.4773983732e+03 -6.8098244135e+03 9.9401822627e+03 7.9829010000e+01 0.0000e+00 1.0000e+00
       24  1    1    2    0    0 -3.6752855670e+02 -1.9037377495e+02 +5.3081399860e+02 6.7783153226e+02 7.9829010000e+01 0.0000e+00 1.0000e+00
       22  1    1    2    0    0 -4.3945122700e+03 -5.3077006122e+03 +6.3047249077e+03 9.3398597442e+03 0.0000000000e+00 0.0000e+00 1.0000e+00
       22  1    1    2    0    0 +2.6510311187e+01 +2.0676013906e+01 -2.5714492783e+01 4.2326460865e+01 0.0000000000e+00 0.0000e+00 1.0000e+00
</event>
<event>
 6      1 +1.4834189e-01 1.00094900e+04 7.81653100e-03 6.93815300e-02
  1000022 -1    0    0    0    0 +0.0000000000e+00 +0.0000000000e+00 +4.4721471353e+01 1.0000100000e+04 1.0000000000e+04 0.0000e+00 -1.0000e+00
  1000022 -1    0    0    0    0 -0.0000000000e+00 -0.0000000000e+00 -4.4721471353e+01 1.0000100000e+04 1.0000000000e+04 0.0000e+00 -1.0000e+00
      -24  1    1    2    0    0 -8.2150428996e+03 +3.4159225753e+03 -4.4811300339e+03 9.9620457705e+03 7.9829010000e+01 0.0000e+00 1.0000e+00
       24  1    1    2    0    0 +1.8050337602e+02 -3.4203995726e+01 +7.9466627683e+01 2.1549709472e+02 7.9829010000e+01 0.0000e+00 0.0000e+00
       22  1    1    2    0    0 -2.3950733448e+01 +7.2990677084e+00 -1.3949507995e+01 2.8661870061e+01 0.0000000000e+00 0.0000e+00 1.0000e+00
       22  1    1    2    0    0 +8.0584902570e+03 -3.3890176473e+03 +4.4156129142e+03 9.7939952647e+03 0.0000000000e+00 0.0000e+00 1.0000e+00
</event>
<event>
 6      1 +1.4834189e-01 1.00090400e+04 7.81653100e-03 6.93818000e-02
  1000022 -1    0    0    0    0 +0.0000000000e+00 +0.0000000000e+00 +4.4721471353e+01 1.0000100000e+04 1.0000000000e+04 0.0000e+00 -1.0000e+00
  1000022 -1    0    0    0    0 -0.0000000000e+00 -0.0000000000e+00 -4.4721471353e+01 1.0000100000e+04 1.0000000000e+04 0.0000e+00 -1.0000e+00
      -24  1    1    2    0    0 +3.6233692339e+03 -8.5755651860e+03 -3.5682272258e+03 9.9703430768e+03 7.9829010000e+01 0.0000e+00 1.0000e+00
       24  1    1    2    0    0 -3.6550115986e+03 +8.5427673041e+03 +3.5710374537e+03 9.9547307430e+03 7.9829010000e+01 0.0000e+00 1.0000e+00
       22  1    1    2    0    0 +1.1290564141e+01 -1.7202124798e+01 +3.1449800189e+00 2.0815398999e+01 0.0000000000e+00 0.0000e+00 1.0000e+00
       22  1    1    2    0    0 +2.0351800599e+01 +5.0000006638e+01 -5.9552079670e+00 5.4310781189e+01 0.0000000000e+00 0.0000e+00 1.0000e+00
</event>
<event>
 6      1 +1.4834189e-01 1.04305100e+04 7.81653100e-03 6.91336800e-02
  1000022 -1    0    0    0    0 +0.0000000000e+00 +0.0000000000e+00 +4.4721471353e+01 1.0000100000e+04 1.0000000000e+04 0.0000e+00 -1.0000e+00
  1000022 -1    0    0    0    0 -0.0000000000e+00 -0.0000000000e+00 -4.4721471353e+01 1.0000100000e+04 1.0000000000e+04 0.0000e+00 -1.0000e+00
      -24  1    1    2    0    0 +1.8798962615e+03 -7.7276297892e+03 +3.9879153971e+03 8.8971969742e+03 7.9829010000e+01 0.0000e+00 1.0000e+00
       24  1    1    2    0    0 -1.9317814568e+03 +8.6357809071e+03 -3.6420004036e+03 9.5696933641e+03 7.9829010000e+01 0.0000e+00 1.0000e+00
       22  1    1    2    0    0 -5.6675794633e+02 -4.3192840354e+02 -1.8462273457e+02 7.3611294625e+02 0.0000000000e+00 0.0000e+00 1.0000e+00
       22  1    1    2    0    0 +6.1864314160e+02 -4.7622271434e+02 -1.6129225899e+02 7.9719671544e+02 0.0000000000e+00 0.0000e+00 1.0000e+00
</event>
<event>
 6      1 +1.4834189e-01 1.02001400e+04 7.81653100e-03 6.92678000e-02
  1000022 -1    0    0    0    0 +0.0000000000e+00 +0.0000000000e+00 +4.4721471353e+01 1.0000100000e+04 1.0000000000e+04 0.0000e+00 -1.0000e+00
  1000022 -1    0    0    0    0 -0.0000000000e+00 -0.0000000000e+00 -4.4721471353e+01 1.0000100000e+04 1.0000000000e+04 0.0000e+00 -1.0000e+00
      -24  1    1    2    0    0 +4.7476455315e+02 -9.8431438449e+02 -2.5890134825e+02 1.1259124155e+03 7.9829010000e+01 0.0000e+00 1.0000e+00
       24  1    1    2    0    0 -8.3448224965e+03 +4.2854189043e+03 -2.7702899898e+03 9.7817052185e+03 7.9829010000e+01 0.0000e+00 -1.0000e+00
       22  1    1    2    0    0 -1.5545380670e+01 +8.3975745364e+00 -4.9642366933e+00 1.8352704547e+01 0.0000000000e+00 0.0000e+00 -1.0000e+00
       22  1    1    2    0    0 +7.8856033240e+03 -3.3095020944e+03 +3.0341555747e+03 9.0742296614e+03 0.0000000000e+00 0.0000e+00 -1.0000e+00
</event>
<event>
 6      1 +1.4834189e-01 1.00141500e+04 7.81653100e-03 6.93787200e-02
  1000022 -1    0    0    0    0 +0.0000000000e+00 +0.0000000000e+00 +4.4721471353e+01 1.0000100000e+04 1.0000000000e+04 0.0000e+00 1.0000e+00
  1000022 -1    0    0    0    0 -0.0000000000e+00 -0.0000000000e+00 -4.4721471353e+01 1.0000100000e+04 1.0000000000e+04 0.0000e+00 1.0000e+00
      -24  1    1    2    0    0 +1.6407699315e+02 +1.6716571390e+03 -1.0160600715e+03 1.9647161601e+03 7.9829010000e+01 0.0000e+00 1.0000e+00
       24  1    1    2    0    0 -1.3503402589e+03 -6.7633955568e+03 +3.1089064355e+03 7.5656202765e+03 7.9829010000e+01 0.0000e+00 1.0000e+00
       22  1    1    2    0    0 +1.5904325814e+03 +7.3254897045e+03 -2.9327704890e+03 8.0494358776e+03 0.0000000000e+00 0.0000e+00 1.0000e+00
       22  1    1    2    0    0 -4.0416931566e+02 -2.2337512867e+03 +8.3992412492e+02 2.4204276858e+03 0.0000000000e+00 0.0000e+00 1.0000e+00
</event>
<event>
 6      1 +1.4834189e-01 1.02134200e+04 7.81653100e-03 6.92599800e-02
  1000022 -1    0    0    0    0 +0.0000000000e+00 +0.0000000000e+00 +4.4721471353e+01 1.0000100000e+04 1.0000000000e+04 0.0000e+00 -1.0000e+00
  1000022 -1    0    0    0    0 -0.0000000000e+00 -0.0000000000e+00 -4.4721471353e+01 1.0000100000e+04 1.0000000000e+04 0.0000e+00 -1.0000e+00
      -24  1    1    2    0    0 -2.1965397083e+03 +6.1216566174e+03 +5.4914771688e+03 8.5124708867e+03 7.9829010000e+01 0.0000e+00 -1.0000e+00
       24  1    1    2    0    0 +2.3278926424e+03 -4.5385439386e+03 -5.1270374213e+03 7.2325894828e+03 7.9829010000e+01 0.0000e+00 -1.0000e+00
       22  1    1    2    0    0 +8.4766603548e+02 -1.6522746153e+03 -1.7536687159e+03 2.5541932342e+03 0.0000000000e+00 0.0000e+00 -1.0000e+00
       22  1    1    2    0    0 -9.7901896954e+02 +6.9161936570e+01 +1.3892289685e+03 1.7009463963e+03 0.0000000000e+00 0.0000e+00 -1.0000e+00
</event>
<event>
 6      1 +1.4834189e-01 1.00022000e+04 7.81653100e-03 6.93859300e-02
  1000022 -1    0    0    0    0 +0.0000000000e+00 +0.0000000000e+00 +4.4721471353e+01 1.0000100000e+04 1.0000000000e+04 0.0000e+00 1.0000e+00
  1000022 -1    0    0    0    0 -0.0000000000e+00 -0.0000000000e+00 -4.4721471353e+01 1.0000100000e+04 1.0000000000e+04 0.0000e+00 1.0000e+00
      -24  1    1    2    0    0 -8.7507085991e+03 -3.0612372532e+03 +3.6645530028e+03 9.9690218120e+03 7.9829010000e+01 0.0000e+00 -1.0000e+00
       24  1    1    2    0    0 +8.6931795609e+03 +3.0647760150e+03 -3.6201256454e+03 9.9033279891e+03 7.9829010000e+01 0.0000e+00 -1.0000e+00
       22  1    1    2    0    0 +8.2525710152e+01 +7.6343664497e+00 -5.3916352277e+01 9.8872389624e+01 0.0000000000e+00 0.0000e+00 -1.0000e+00
       22  1    1    2    0    0 -2.4996671956e+01 -1.1173128221e+01 +9.4889949171e+00 2.8977809228e+01 0.0000000000e+00 0.0000e+00 -1.0000e+00
</event>
<event>
 6      1 +1.4834189e-01 1.00663800e+04 7.81653100e-03 6.93473300e-02
  1000022 -1    0    0    0    0 +0.0000000000e+00 +0.0000000000e+00 +4.4721471353e+01 1.0000100000e+04 1.0000000000e+04 0.0000e+00 1.0000e+00
  1000022 -1    0    0    0    0 -0.0000000000e+00 -0.0000000000e+00 -4.4721471353e+01 1.0000100000e+04 1.0000000000e+04 0.0000e+00 1.0000e+00
      -24  1    1    2    0    0 -2.5447907725e+03 -5.6496965635e+03 +1.6608637740e+03 6.4155960348e+03 7.9829010000e+01 0.0000e+00 1.0000e+00
       24  1    1    2    0    0 +4.3481425110e+03 +8.5743032831e+03 -2.1980680930e+03 9.8621952982e+03 7.9829010000e+01 0.0000e+00 1.0000e+00
       22  1    1    2    0    0 +1.7163870650e+02 -4.5950272328e+01 +1.0060855620e+02 2.0418950678e+02 0.0000000000e+00 0.0000e+00 -1.0000e+00
       22  1    1    2    0    0 -1.9749904450e+03 -2.8786564473e+03 +4.3659576282e+02 3.5182191602e+03 0.0000000000e+00 0.0000e+00 1.0000e+00
</event>
<event>
 6      1 +1.4834189e-01 1.01742000e+04 7.81653100e-03 6.92831300e-02
  1000022 -1    0    0    0    0 +0.0000000000e+00 +0.0000000000e+00 +4.4721471353e+01 1.0000100000e+04 1.0000000000e+04 0.0000e+00 1.0000e+00
  1000022 -1    0    0    0    0 -0.0000000000e+00 -0.0000000000e+00 -4.4721471353e+01 1.0000100000e+04 1.0000000000e+04 0.0000e+00 1.0000e+00
      -24  1    1    2    0    0 +3.2160118712e+03 -9.5203519063e+02 -7.8772302669e+03 8.5619059040e+03 7.9829010000e+01 0.0000e+00 1.0000e+00
       24  1    1    2    0    0 -3.5580992942e+03 +4.6144030430e+02 +6.7844189615e+03 7.6751358983e+03 7.9829010000e+01 0.0000e+00 1.0000e+00
       22  1    1    2    0    0 +1.3533621066e+03 +3.5606455594e+02 -8.0070970641e+02 1.6122986676e+03 0.0000000000e+00 0.0000e+00 1.0000e+00
       22  1    1    2    0    0 -1.0112746837e+03 +1.3453033038e+02 +1.8935210119e+03 2.1508595301e+03 0.0000000000e+00 0.0000e+00 -1.0000e+00
</event>
<event>
 6      1 +1.4834189e-01 1.00633600e+04 7.81653100e-03 6.93491400e-02
  1000022 -1    0    0    0    0 +0.0000000000e+00 +0.0000000000e+00 +4.4721471353e+01 1.0000100000e+04 1.0000000000e+04 0.0000e+00 1.0000e+00
  1000022 -1    0    0    0    0 -0.0000000000e+00 -0.0000000000e+00 -4.4721471353e+01 1.0000100000e+04 1.0000000000e+04 0.0000e+00 1.0000e+00
      -24  1    1    2    0    0 -2.2679366708e+03 +8.0341161770e+03 -5.3892287697e+03 9.9368364630e+03 7.9829010000e+01 0.0000e+00 1.0000e+00
       24  1    1    2    0    0 -2.3363515263e+01 -1.8366059629e+03 +7.8685807946e+02 1.9997963958e+03 7.9829010000e+01 0.0000e+00 -1.0000e+00
       22  1    1    2    0    0 -1.3617947916e+01 -6.7484897086e+00 +1.0012461194e+01 1.8199999944e+01 0.0000000000e+00 0.0000e+00 -1.0000e+00
       22  1    1    2    0    0 +2.3049181340e+03 -6.1907617245e+03 +4.5923582291e+03 8.0453671413e+03 0.0000000000e+00 0.0000e+00 1.0000e+00
</event>
<event>
 6      1 +1.4834189e-01 1.00046600e+04 7.81653100e-03 6.93844400e-02
  1000022 -1    0    0    0    0 +0.0000000000e+00 +0.0000000000e+00 +4.4721471353e+01 1.0000100000e+04 1.0000000000e+04 0.0000e+00 1.0000e+00
  1000022 -1    0    0    0    0 -0.0000000000e+00 -0.0000000000e+00 -4.4721471353e+01 1.0000100000e+04 1.0000000000e+04 0.0000e+00 1.0000e+00
      -24  1    1    2    0    0 +8.1064989042e+03 -1.4250329618e+03 +5.4123738259e+03 9.8512033035e+03 7.9829010000e+01 0.0000e+00 -1.0000e+00
       24  1    1    2    0    0 -2.4166958246e+03 +3.8389820212e+02 -1.3875968884e+03 2.8141773814e+03 7.9829010000e+01 0.0000e+00 -1.0000e+00
       22  1    1    2    0    0 +1.2393133009e+02 -1.8640253187e+01 +7.1607164594e+01 1.4433994471e+02 0.0000000000e+00 0.0000e+00 -1.0000e+00
       22  1    1    2    0    0 -5.8137344096e+03 +1.0597750129e+03 -4.0963841021e+03 7.1904793704e+03 0.0000000000e+00 0.0000e+00 -1.0000e+00
</event>
<event>
 6      1 +1.4834189e-01 1.05081800e+04 7.81653100e-03 6.90892500e-02
  1000022 -1    0    0    0    0 +0.0000000000e+00 +0.0000000000e+00 +4.4721471353e+01 1.0000100000e+04 1.0000000000e+04 0.0000e+00 1.0000e+00
  1000022 -1    0    0    0    0 -0.0000000000e+00 -0.0000000000e+00 -4.4721471353e+01 1.0000100000e+04 1.0000000000e+04 0.0000e+00 1.0000e+00
      -24  1    1    2    0    0 +9.4600301812e+02 +1.7351498468e+03 -4.1106362233e+02 2.0201516462e+03 7.9829010000e+01 0.0000e+00 1.0000e+00
       24  1    1    2    0    0 -4.8334725713e+03 -6.4989004866e+03 -4.9491342698e+03 9.4920212454e+03 7.9829010000e+01 0.0000e+00 1.0000e+00
       22  1    1    2    0    0 +2.2383729668e+02 +5.0185993069e+02 -1.9755171676e+02 5.8394623572e+02 0.0000000000e+00 0.0000e+00 1.0000e+00
       22  1    1    2    0    0 +3.6636322565e+03 +4.2618907091e+03 +5.5577496089e+03 7.9040808727e+03 0.0000000000e+00 0.0000e+00 1.0000e+00
</event>
<event>
 6      1 +1.4834189e-01 1.00153700e+04 7.81653100e-03 6.93779800e-02
  1000022 -1    0    0    0    0 +0.0000000000e+00 +0.0000000000e+00 +4.4721471353e+01 1.0000100000e+04 1.0000000000e+04 0.0000e+00 -1.0000e+00
  1000022 -1    0    0    0    0 -0.0000000000e+00 -0.0000000000e+00 -4.4721471353e+01 1.0000100000e+04 1.0000000000e+04 0.0000e+00 -1.0000e+00
      -24  1    1    2    0    0 -5.4602988049e+02 -1.5742365733e+03 +5.5362187905e+02 1.7576231892e+03 7.9829010000e+01 0.0000e+00 1.0000e+00
       24  1    1    2    0    0 +4.2402812832e+03 +8.4507284246e+03 -3.0923436797e+03 9.9480529940e+03 7.9829010000e+01 0.0000e+00 -1.0000e+00
       22  1    1    2    0    0 -3.6558770941e+03 -6.9272757864e+03 +2.5168266451e+03 8.2272111623e+03 0.0000000000e+00 0.0000e+00 -1.0000e+00
       22  1    1    2    0    0 -3.8374308641e+01 +5.0783935133e+01 +2.1895155595e+01 6.7312654604e+01 0.0000000000e+00 0.0000e+00 -1.0000e+00
</event>
<event>
 6      1 +1.4834189e-01 1.00238600e+04 7.81653100e-03 6.93728600e-02
  1000022 -1    0    0    0    0 +0.0000000000e+00 +0.0000000000e+00 +4.4721471353e+01 1.0000100000e+04 1.0000000000e+04 0.0000e+00 -1.0000e+00
  1000022 -1    0    0    0    0 -0.0000000000e+00 -0.0000000000e+00 -4.4721471353e+01 1.0000100000e+04 1.0000000000e+04 0.0000e+00 -1.0000e+00
      -24  1    1    2    0    0 +1.8290626368e+03 -5.0939289744e+03 +6.7784302049e+03 8.6745069739e+03 7.9829010000e+01 0.0000e+00 1.0000e+00
       24  1    1    2    0    0 -1.6865035993e+03 +5.7356061569e+03 -7.7140865130e+03 9.7598655615e+03 7.9829010000e+01 0.0000e+00 1.0000e+00
       22  1    1    2    0    0 -9.7890403239e+01 -7.4729207339e+02 +1.1192576515e+03 1.3493575006e+03 0.0000000000e+00 0.0000e+00 -1.0000e+00
       22  1    1    2    0    0 -4.4668634327e+01 +1.0561489089e+02 -1.8360134340e+02 2.1646996413e+02 0.0000000000e+00 0.0000e+00 -1.0000e+00
</event>
<event>
 6      1 +1.4834189e-01 1.00144400e+04 7.81653100e-03 6.93785400e-02
  1000022 -1    0    0    0    0 +0.0000000000e+00 +0.0000000000e+00 +4.4721471353e+01 1.0000100000e+04 1.0000000000e+04 0.0000e+00 1.0000e+00
  1000022 -1    0    0    0    0 -0.0000000000e+00 -0.0000000000e+00 -4.4721471353e+01 1.0000100000e+04 1.0000000000e+04 0.0000e+00 1.0000e+00
      -24  1    1    2    0    0 -1.1050900438e+03 -5.1577517673e+02 -8.3024847482e+03 8.3919529135e+03 7.9829010000e+01 0.0000e+00 1.0000e+00
       24  1    1    2    0    0 +1.4651585123e+03 +4.0964077631e+02 +9.8688646246e+03 9.9857576919e+03 7.9829010000e+01 0.0000e+00 1.0000e+00
       22  1    1    2    0    0 -2.9577181982e+02 +1.5372601134e+02 -1.1034463066e+03 1.1526952796e+03 0.0000000000e+00 0.0000e+00 1.0000e+00
       22  1    1    2    0    0 -6.4296648697e+01 -4.7591610921e+01 -4.6293356983e+02 4.6979411505e+02 0.0000000000e+00 0.0000e+00 -1.0000e+00
</event>
<event>
 6      1 +1.4834189e-01 1.00278300e+04 7.81653100e-03 6.93704800e-02
  1000022 -1    0    0    0    0 +0.0000000000e+00 +0.0000000000e+00 +4.4721471353e+01 1.0000100000e+04 1.0000000000e+04 0.0000e+00 1.0000e+00
  1000022 -1    0    0    0    0 -0.0000000000e+00 -0.0000000000e+00 -4.4721471353e+01 1.0000100000e+04 1.0000000000e+04 0.0000e+00 1.0000e+00
      -24  1    1    2    0    0 +6.0993324812e+03 +2.5504822954e+03 -4.7053959496e+03 8.1150440768e+03 7.9829010000e+01 0.0000e+00 -1.0000e+00
       24  1    1    2    0    0 -7.6034559039e+03 -2.6453459042e+03 +5.8586805032e+03 9.9569526736e+03 7.9829010000e+01 0.0000e+00 -1.0000e+00
       22  1    1    2    0    0 -1.1088552513e+01 -3.9577821024e+00 +9.9523406135e+00 1.5416520998e+01 0.0000000000e+00 0.0000e+00 -1.0000e+00
       22  1    1    2    0    0 +1.5152119752e+03 +9.8821390929e+01 -1.1632368942e+03 1.9127867286e+03 0.0000000000e+00 0.0000e+00 1.0000e+00
</event>
<event>
 6      1 +1.4834189e-01 1.00390600e+04 7.81653100e-03 6.93637200e-02
  1000022 -1    0    0    0    0 +0.0000000000e+00 +0.0000000000e+00 +4.4721471353e+01 1.0000100000e+04 1.0000000000e+04 0.0000e+00 -1.0000e+00
  1000022 -1    0    0    0    0 -0.0000000000e+00 -0.0000000000e+00 -4.4721471353e+01 1.0000100000e+04 1.0000000000e+04 0.0000e+00 -1.0000e+00
      -24  1    1    2    0    0 -1.3010749262e+03 +1.7460258262e+03 -9.4885556396e+03 9.7355258177e+03 7.9829010000e+01 0.0000e+00 1.0000e+00
       24  1    1    2    0    0 +1.2235818259e+03 -1.9552485894e+03 +9.6900873126e+03 9.9611402122e+03 7.9829010000e+01 0.0000e+00 1.0000e+00
       22  1    1    2    0    0 +4.5713098506e+01 +1.7164805001e+02 -1.6201903414e+02 2.4042235311e+02 0.0000000000e+00 0.0000e+00 -1.0000e+00
       22  1    1    2    0    0 +3.1780001812e+01 +3.7574713109e+01 -3.9512638798e+01 6.3111617038e+01 0.0000000000e+00 0.0000e+00 -1.0000e+00
</event>
<event>
 6      1 +1.4834189e-01 1.00240500e+04 7.81653100e-03 6.93727500e-02
  1000022 -1    0    0    0    0 +0.0000000000e+00 +0.0000000000e+00 +4.4721471353e+01 1.0000100000e+04 1.0000000000e+04 0.0000e+00 -1.0000e+00
  1000022 -1    0    0    0    0 -0.0000000000e+00 -0.0000000000e+00 -4.4721471353e+01 1.0000100000e+04 1.0000000000e+04 0.0000e+00 -1.0000e+00
      -24  1    1    2    0    0 -6.2650383648e+03 -3.1222667267e+03 -6.9587802175e+03 9.8706762692e+03 7.9829010000e+01 0.0000e+00 1.0000e+00
       24  1    1    2    0    0 +6.3569863741e+03 +3.1216076712e+03 +7.0257673704e+03 9.9761460508e+03 7.9829010000e+01 0.0000e+00 1.0000e+00
       22  1    1    2    0    0 -4.7627838402e+01 +1.7379221698e+01 +1.9861210125e+01 5.4451042279e+01 0.0000000000e+00 0.0000e+00 1.0000e+00
       22  1    1    2    0    0 -4.4320170893e+01 -1.6720166119e+01 -8.6848362995e+01 9.8926637757e+01 0.0000000000e+00 0.0000e+00 -1.0000e+00
</event>
<event>
 6      1 +1.4834189e-01 1.00414100e+04 7.81653100e-03 6.93623100e-02
  1000022 -1    0    0    0    0 +0.0000000000e+00 +0.0000000000e+00 +4.4721471353e+01 1.0000100000e+04 1.0000000000e+04 0.0000e+00 1.0000e+00
  1000022 -1    0    0    0    0 -0.0000000000e+00 -0.0000000000e+00 -4.4721471353e+01 1.0000100000e+04 1.0000000000e+04 0.0000e+00 1.0000e+00
      -24  1    1    2    0    0 +2.5424669333e+03 +8.3462604200e+03 -7.0966276211e+02 8.7540958992e+03 7.9829010000e+01 0.0000e+00 -1.0000e+00
       24  1    1    2    0    0 -3.1234133047e+03 -9.4146257369e+03 +8.8328922310e+02 9.9587881271e+03 7.9829010000e+01 0.0000e+00 -1.0000e+00
       22  1    1    2    0    0 +2.7963061600e+02 +8.6552436612e+02 -8.5749328786e+01 9.1360749621e+02 0.0000000000e+00 0.0000e+00 -1.0000e+00
       22  1    1    2    0    0 +3.0131575545e+02 +2.0284095076e+02 -8.7877132209e+01 3.7370847750e+02 0.0000000000e+00 0.0000e+00 -1.0000e+00
</event>
<event>
 6      1 +1.4834189e-01 1.00013600e+04 7.81653100e-03 6.93864300e-02
  1000022 -1    0    0    0    0 +0.0000000000e+00 +0.0000000000e+00 +4.4721471353e+01 1.0000100000e+04 1.0000000000e+04 0.0000e+00 -1.0000e+00
  1000022 -1    0    0    0    0 -0.0000000000e+00 -0.0000000000e+00 -4.4721471353e+01 1.0000100000e+04 1.0000000000e+04 0.0000e+00 -1.0000e+00
      -24  1    1    2    0    0 +3.8721176192e+03 +9.1720781415e+03 -9.2197360181e+02 9.9988359464e+03 7.9829010000e+01 0.0000e+00 -1.0000e+00
       24  1    1    2    0    0 -3.8575931042e+03 -9.1367735376e+03 +9.2686025831e+02 9.9612799300e+03 7.9829010000e+01 0.0000e+00 -1.0000e+00
       22  1    1    2    0    0 -7.7158712467e+00 -1.3312462616e+01 +3.1380935112e+00 1.5703628908e+01 0.0000000000e+00 0.0000e+00 -1.0000e+00
       22  1    1    2    0    0 -6.8086437380e+00 -2.1992141314e+01 -8.0247500082e+00 2.4380494700e+01 0.0000000000e+00 0.0000e+00 1.0000e+00
</event>
<event>
 6      1 +1.4834189e-01 1.00128300e+04 7.81653100e-03 6.93795100e-02
  1000022 -1    0    0    0    0 +0.0000000000e+00 +0.0000000000e+00 +4.4721471353e+01 1.0000100000e+04 1.0000000000e+04 0.0000e+00 1.0000e+00
  1000022 -1    0    0    0    0 -0.0000000000e+00 -0.0000000000e+00 -4.4721471353e+01 1.0000100000e+04 1.0000000000e+04 0.0000e+00 1.0000e+00
      -24  1    1    2    0    0 +4.9033146332e+03 +6.2003623128e+03 +6.1036240728e+03 9.9873713606e+03 7.9829010000e+01 0.0000e+00 1.0000e+00
       24  1    1    2    0    0 -3.1363874305e+02 -3.4520420635e+02 -4.3966552813e+02 6.4592077895e+02 7.9829010000e+01 0.0000e+00 -1.0000e+00
       22  1    1    2    0    0 -4.5641228948e+03 -5.7876208312e+03 -5.5295136844e+03 9.2142983602e+03 0.0000000000e+00 0.0000e+00 1.0000e+00
       22  1    1    2    0    0 -2.5552995362e+01 -6.7537275191e+01 -1.3444486024e+02 1.5260950022e+02 0.0000000000e+00 0.0000e+00 -1.0000e+00
</event>
<event>
 6      1 +1.4834189e-01 9.26793000e+03 7.81653100e-03 6.98494200e-02
  1000022 -1    0    0    0    0 +0.0000000000e+00 +0.0000000000e+00 +4.4721471353e+01 1.0000100000e+04 1.0000000000e+04 0.0000e+00 1.0000e+00
  1000022 -1    0    0    0    0 -0.0000000000e+00 -0.0000000000e+00 -4.4721471353e+01 1.0000100000e+04 1.0000000000e+04 0.0000e+00 1.0000e+00
      -24  1    1    2    0    0 -6.2207139270e+02 -1.1254676393e+03 +8.5365605503e+01 1.2912436572e+03 7.9829010000e+01 0.0000e+00 1.0000e+00
       24  1    1    2    0    0 +6.7460448402e+03 +1.8447506236e+03 -6.6440999074e+03 9.6468990925e+03 7.9829010000e+01 0.0000e+00 -1.0000e+00
       22  1    1    2    0    0 -8.5803159641e+01 -8.4209443603e+01 -5.6556102555e+00 1.2035530119e+02 0.0000000000e+00 0.0000e+00 -1.0000e+00
       22  1    1    2    0    0 -6.0381702879e+03 -6.3507354068e+02 +6.5643899122e+03 8.9417019491e+03 0.0000000000e+00 0.0000e+00 -1.0000e+00
</event>
<event>
 6      1 +1.4834189e-01 1.00008100e+04 7.81653100e-03 6.93867600e-02
  1000022 -1    0    0    0    0 +0.0000000000e+00 +0.0000000000e+00 +4.4721471353e+01 1.0000100000e+04 1.0000000000e+04 0.0000e+00 -1.0000e+00
  1000022 -1    0    0    0    0 -0.0000000000e+00 -0.0000000000e+00 -4.4721471353e+01 1.0000100000e+04 1.0000000000e+04 0.0000e+00 -1.0000e+00
      -24  1    1    2    0    0 +1.7269283487e+03 +4.8657527828e+02 -9.7934514975e+03 9.9567616185e+03 7.9829010000e+01 0.0000e+00 1.0000e+00
       24  1    1    2    0    0 -1.6927024320e+03 -4.7819875303e+02 +9.5528517755e+03 9.7137667919e+03 7.9829010000e+01 0.0000e+00 1.0000e+00
       22  1    1    2    0    0 -5.2613942798e+01 -7.8560964720e+00 +2.8062434002e+02 2.8562206749e+02 0.0000000000e+00 0.0000e+00 -1.0000e+00
       22  1    1    2    0    0 +1.8388026065e+01 -5.2042878356e-01 -4.0024618042e+01 4.4049522110e+01 0.0000000000e+00 0.0000e+00 1.0000e+00
</event>
<event>
 6      1 +1.4834189e-01 1.00180200e+04 7.81653100e-03 6.93763900e-02
  1000022 -1    0    0    0    0 +0.0000000000e+00 +0.0000000000e+00 +4.4721471353e+01 1.0000100000e+04 1.0000000000e+04 0.0000e+00 -1.0000e+00
  1000022 -1    0    0    0    0 -0.0000000000e+00 -0.0000000000e+00 -4.4721471353e+01 1.0000100000e+04 1.0000000000e+04 0.0000e+00 -1.0000e+00
      -24  1    1    2    0    0 +7.9757322985e+02 +1.6656194077e+03 +2.4586571582e+03 3.0760004487e+03 7.9829010000e+01 0.0000e+00 0.0000e+00
       24  1    1    2    0    0 -1.6254519679e+03 -2.2513420899e+03 -3.8089375283e+03 4.7143412129e+03 7.9829010000e+01 0.0000e+00 1.0000e+00
       22  1    1    2    0    0 -1.1080094526e+03 -3.0772025067e+03 -4.1751775492e+03 5.3036749318e+03 0.0000000000e+00 0.0000e+00 1.0000e+00
       22  1    1    2    0    0 +1.9358881906e+03 +3.6629251889e+03 +5.5254579194e+03 6.9061834066e+03 0.0000000000e+00 0.0000e+00 1.0000e+00
</event>
<event>
 6      1 +1.4834189e-01 1.01132700e+04 7.81653100e-03 6.93193100e-02
  1000022 -1    0    0    0    0 +0.0000000000e+00 +0.0000000000e+00 +4.4721471353e+01 1.0000100000e+04 1.0000000000e+04 0.0000e+00 -1.0000e+00
  1000022 -1    0    0    0    0 -0.0000000000e+00 -0.0000000000e+00 -4.4721471353e+01 1.0000100000e+04 1.0000000000e+04 0.0000e+00 -1.0000e+00
      -24  1    1    2    0    0 +1.2752099190e+03 -3.2132566711e+03 -1.7257119943e+03 3.8646647112e+03 7.9829010000e+01 0.0000e+00 -1.0000e+00
       24  1    1    2    0    0 -2.3406296911e+03 +5.9004426785e+03 +1.1984659039e+03 6.4603764864e+03 7.9829010000e+01 0.0000e+00 -1.0000e+00
       22  1    1    2    0    0 -1.1996659762e+03 +3.1340844967e+03 +6.9250269824e+02 3.4265498791e+03 0.0000000000e+00 0.0000e+00 -1.0000e+00
       22  1    1    2    0    0 +2.2650857482e+03 -5.8212705041e+03 -1.6525660783e+02 6.2486089232e+03 0.0000000000e+00 0.0000e+00 -1.0000e+00
</event>
<event>
 6      1 +1.4834189e-01 1.00370100e+04 7.81653100e-03 6.93649600e-02
  1000022 -1    0    0    0    0 +0.0000000000e+00 +0.0000000000e+00 +4.4721471353e+01 1.0000100000e+04 1.0000000000e+04 0.0000e+00 1.0000e+00
  1000022 -1    0    0    0    0 -0.0000000000e+00 -0.0000000000e+00 -4.4721471353e+01 1.0000100000e+04 1.0000000000e+04 0.0000e+00 1.0000e+00
      -24  1    1    2    0    0 +9.9827483280e+02 -2.1660620404e+03 -1.9223520826e+02 2.3940978365e+03 7.9829010000e+01 0.0000e+00 -1.0000e+00
       24  1    1    2    0    0 -2.8927442402e+03 +9.1434793815e+03 +2.5357622220e+03 9.9200628605e+03 7.9829010000e+01 0.0000e+00 -1.0000e+00
       22  1    1    2    0    0 -1.4107931580e+01 +4.0143453110e+01 +7.0523540767e+00 4.3130804062e+01 0.0000000000e+00 0.0000e+00 -1.0000e+00
       22  1    1    2    0    0 +1.9085773390e+03 -7.0175607942e+03 -2.3505793678e+03 7.6429084989e+03 0.0000000000e+00 0.0000e+00 -1.0000e+00
</event>
<event>
 6      1 +1.4834189e-01 1.00948000e+04 7.81653100e-03 6.93303300e-02
  1000022 -1    0    0    0    0 +0.0000000000e+00 +0.0000000000e+00 +4.4721471353e+01 1.0000100000e+04 1.0000000000e+04 0.0000e+00 1.0000e+00
  1000022 -1    0    0    0    0 -0.0000000000e+00 -0.0000000000e+00 -4.4721471353e+01 1.0000100000e+04 1.0000000000e+04 0.0000e+00 1.0000e+00
      -24  1    1    2    0    0 +7.3584677619e+03 +7.5738955794e+02 +6.5065776783e+03 9.8520359571e+03 7.9829010000e+01 0.0000e+00 1.0000e+00
       24  1    1    2    0    0 -2.3831642263e+02 -2.6882639671e+01 -1.7367627058e+02 3.0668144940e+02 7.9829010000e+01 0.0000e+00 0.0000e+00
       22  1    1    2    0    0 -1.2437731374e+02 +9.0321981167e+01 +1.8789785624e+02 2.4276198391e+02 0.0000000000e+00 0.0000e+00 -1.0000e+00
       22  1    1    2    0    0 -6.9957740256e+03 -8.2082889944e+02 -6.5207992640e+03 9.5987206095e+03 0.0000000000e+00 0.0000e+00 1.0000e+00
</event>
<event>
 6      1 +1.4834189e-01 8.76385800e+03 7.81653100e-03 7.01933800e-02
  1000022 -1    0    0    0    0 +0.0000000000e+00 +0.0000000000e+00 +4.4721471353e+01 1.0000100000e+04 1.0000000000e+04 0.0000e+00 1.0000e+00
  1000022 -1    0    0    0    0 -0.0000000000e+00 -0.0000000000e+00 -4.4721471353e+01 1.0000100000e+04 1.0000000000e+04 0.0000e+00 1.0000e+00
      -24  1    1    2    0    0 -2.9401263273e+03 +3.0388966944e+03 -2.1372524920e+03 4.7385078691e+03 7.9829010000e+01 0.0000e+00 1.0000e+00
       24  1    1    2    0    0 -1.4433021948e+02 -2.1542463431e+03 -8.4925486610e+02 2.3214682892e+03 7.9829010000e+01 0.0000e+00 1.0000e+00
       22  1    1    2    0    0 -2.8434047095e+03 +2.7456311440e+03 -1.9568816205e+03 4.4105358402e+03 0.0000000000e+00 0.0000e+00 1.0000e+00
       22  1    1    2    0    0 +5.9278612563e+03 -3.6302814953e+03 +4.9433889786e+03 8.5296880015e+03 0.0000000000e+00 0.0000e+00 1.0000e+00
</event>
<event>
 6      1 +1.4834189e-01 1.00046100e+04 7.81653100e-03 6.93844700e-02
  1000022 -1    0    0    0    0 +0.0000000000e+00 +0.0000000000e+00 +4.4721471353e+01 1.0000100000e+04 1.0000000000e+04 0.0000e+00 -1.0000e+00
  1000022 -1    0    0    0    0 -0.0000000000e+00 -0.0000000000e+00 -4.4721471353e+01 1.0000100000e+04 1.0000000000e+04 0.0000e+00 -1.0000e+00
      -24  1    1    2    0    0 -7.7755756297e+03 +8.1693583166e+02 +6.2272337045e+03 9.9955876669e+03 7.9829010000e+01 0.0000e+00 1.0000e+00
       24  1    1    2    0    0 +7.4099250458e+03 -7.7593444307e+02 -5.8973639413e+03 9.5023332699e+03 7.9829010000e+01 0.0000e+00 1.0000e+00
       22  1    1    2    0    0 +1.6420508244e+01 +1.1533759574e-01 -5.0701893000e+01 5.3294730955e+01 0.0000000000e+00 0.0000e+00 -1.0000e+00
       22  1    1    2    0    0 +3.4923007560e+02 -4.1116726185e+01 -2.7916787018e+02 4.4898433226e+02 0.0000000000e+00 0.0000e+00 1.0000e+00
</event>
<event>
 6      1 +1.4834189e-01 1.00006500e+04 7.81653100e-03 6.93868600e-02
  1000022 -1    0    0    0    0 +0.0000000000e+00 +0.0000000000e+00 +4.4721471353e+01 1.0000100000e+04 1.0000000000e+04 0.0000e+00 -1.0000e+00
  1000022 -1    0    0    0    0 -0.0000000000e+00 -0.0000000000e+00 -4.4721471353e+01 1.0000100000e+04 1.0000000000e+04 0.0000e+00 -1.0000e+00
      -24  1    1    2    0    0 -4.3234756565e+03 +5.7275334861e+03 +6.8996680424e+03 9.9553439595e+03 7.9829010000e+01 0.0000e+00 1.0000e+00
       24  1    1    2    0    0 +4.0092374295e+03 -5.3172901216e+03 -6.4032224387e+03 9.2387872187e+03 7.9829010000e+01 0.0000e+00 1.0000e+00
       22  1    1    2    0    0 -1.4327324432e+01 +3.3573189558e+01 +2.6840367434e+01 4.5308239941e+01 0.0000000000e+00 0.0000e+00 1.0000e+00
       22  1    1    2    0    0 +3.2856555144e+02 -4.4381655406e+02 -5.2328597116e+02 7.6076058183e+02 0.0000000000e+00 0.0000e+00 1.0000e+00
</event>
<event>
 6      1 +1.4834189e-01 1.00118300e+04 7.81653100e-03 6.93801200e-02
  1000022 -1    0    0    0    0 +0.0000000000e+00 +0.0000000000e+00 +4.4721471353e+01 1.0000100000e+04 1.0000000000e+04 0.0000e+00 1.0000e+00
  1000022 -1    0    0    0    0 -0.0000000000e+00 -0.0000000000e+00 -4.4721471353e+01 1.0000100000e+04 1.0000000000e+04 0.0000e+00 1.0000e+00
      -24  1    1    2    0    0 -3.4581879369e+03 -3.6627871722e+03 -8.5989779780e+03 9.9661360924e+03 7.9829010000e+01 0.0000e+00 -1.0000e+00
       24  1    1    2    0    0 +2.0962103655e+03 +2.5888002264e+03 +4.9361627964e+03 5.9555067234e+03 7.9829010000e+01 0.0000e+00 -1.0000e+00
       22  1    1    2    0    0 +1.3815017487e+03 +1.0828126241e+03 +3.6568728429e+03 4.0563221334e+03 0.0000000000e+00 0.0000e+00 -1.0000e+00
       22  1    1    2    0    0 -1.9524177295e+01 -8.8256782576e+00 +5.9423386370e+00 2.2235050803e+01 0.0000000000e+00 0.0000e+00 1.0000e+00
</event>
<event>
 6      1 +1.4834189e-01 1.00536600e+04 7.81653100e-03 6.93549500e-02
  1000022 -1    0    0    0    0 +0.0000000000e+00 +0.0000000000e+00 +4.4721471353e+01 1.0000100000e+04 1.0000000000e+04 0.0000e+00 -1.0000e+00
  1000022 -1    0    0    0    0 -0.0000000000e+00 -0.0000000000e+00 -4.4721471353e+01 1.0000100000e+04 1.0000000000e+04 0.0000e+00 -1.0000e+00
      -24  1    1    2    0    0 -7.0533341067e+03 +1.1098099851e+03 +6.4797588265e+03 9.6423465684e+03 7.9829010000e+01 0.0000e+00 1.0000e+00
       24  1    1    2    0    0 +6.2054073508e+03 -1.0078762619e+03 -4.9136714532e+03 7.9795635701e+03 7.9829010000e+01 0.0000e+00 1.0000e+00
       22  1    1    2    0    0 -2.1930869357e+02 +4.2341579943e+01 +2.0650293847e+02 3.0419167653e+02 0.0000000000e+00 0.0000e+00 -1.0000e+00
       22  1    1    2    0    0 +1.0672354495e+03 -1.4427530310e+02 -1.7725903118e+03 2.0740981850e+03 0.0000000000e+00 0.0000e+00 1.0000e+00
</event>
<event>
 6      1 +1.4834189e-01 1.06740300e+04 7.81653100e-03 6.89956400e-02
  1000022 -1    0    0    0    0 +0.0000000000e+00 +0.0000000000e+00 +4.4721471353e+01 1.0000100000e+04 1.0000000000e+04 0.0000e+00 -1.0000e+00
  1000022 -1    0    0    0    0 -0.0000000000e+00 -0.0000000000e+00 -4.4721471353e+01 1.0000100000e+04 1.0000000000e+04 0.0000e+00 -1.0000e+00
      -24  1    1    2    0    0 -1.4920255595e+03 -9.0657961260e+03 -1.5988467855e+03 9.3261719576e+03 7.9829010000e+01 0.0000e+00 -1.0000e+00
       24  1    1    2    0    0 +2.0312215883e+03 +5.5589396169e+03 -1.2678826625e+03 6.0532280580e+03 7.9829010000e+01 0.0000e+00 -1.0000e+00
       22  1    1    2    0    0 -5.8752788529e+02 +3.4300488064e+03 +2.8939280570e+03 4.5260626851e+03 0.0000000000e+00 0.0000e+00 -1.0000e+00
       22  1    1    2    0    0 +4.8331856504e+01 +7.6807702764e+01 -2.7198609020e+01 9.4737299358e+01 0.0000000000e+00 0.0000e+00 1.0000e+00
</event>
<event>
 6      1 +1.4834189e-01 1.03459000e+04 7.81653100e-03 6.91825300e-02
  1000022 -1    0    0    0    0 +0.0000000000e+00 +0.0000000000e+00 +4.4721471353e+01 1.0000100000e+04 1.0000000000e+04 0.0000e+00 1.0000e+00
  1000022 -1    0    0    0    0 -0.0000000000e+00 -0.0000000000e+00 -4.4721471353e+01 1.0000100000e+04 1.0000000000e+04 0.0000e+00 1.0000e+00
      -24  1    1    2    0    0 -3.7899059003e+02 -7.4561642206e+03 -4.7463687624e+03 8.8471694825e+03 7.9829010000e+01 0.0000e+00 -1.0000e+00
       24  1    1    2    0    0 -6.0644549938e+02 +7.8875775198e+03 +5.5333041157e+03 9.6542986478e+03 7.9829010000e+01 0.0000e+00 -1.0000e+00
       22  1    1    2    0    0 -1.8899813949e+01 -2.5494081193e+02 -1.6696827897e+02 3.0533657943e+02 0.0000000000e+00 0.0000e+00 -1.0000e+00
       22  1    1    2    0    0 +1.0043359034e+03 -1.7647248720e+02 -6.1996707438e+02 1.1933952903e+03 0.0000000000e+00 0.0000e+00 -1.0000e+00
</event>
<event>
 6      1 +1.4834189e-01 1.00280800e+04 7.81653100e-03 6.93703300e-02
  1000022 -1    0    0    0    0 +0.0000000000e+00 +0.0000000000e+00 +4.4721471353e+01 1.0000100000e+04 1.0000000000e+04 0.0000e+00 1.0000e+00
  1000022 -1    0    0    0    0 -0.0000000000e+00 -0.0000000000e+00 -4.4721471353e+01 1.0000100000e+04 1.0000000000e+04 0.0000e+00 1.0000e+00
      -24  1    1    2    0    0 +1.5529577001e+03 -9.3689149748e+03 +2.9894896285e+03 9.9564886548e+03 7.9829010000e+01 0.0000e+00 -1.0000e+00
       24  1    1    2    0    0 -3.6632545165e+02 +1.2123715216e+03 -7.4250000735e+02 1.4702781963e+03 7.9829010000e+01 0.0000e+00 1.0000e+00
       22  1    1    2    0    0 -1.1941317945e+03 +8.1699498405e+03 -2.2498781953e+03 8.5578024652e+03 0.0000000000e+00 0.0000e+00 -1.0000e+00
       22  1    1    2    0    0 +7.4995460828e+00 -1.3406387348e+01 +2.8885741547e+00 1.5630683729e+01 0.0000000000e+00 0.0000e+00 -1.0000e+00
</event>
<event>
 6      1 +1.4834189e-01 1.00025600e+04 7.81653100e-03 6.93857100e-02
  1000022 -1    0    0    0    0 +0.0000000000e+00 +0.0000000000e+00 +4.4721471353e+01 1.0000100000e+04 1.0000000000e+04 0.0000e+00 -1.0000e+00
  1000022 -1    0    0    0    0 -0.0000000000e+00 -0.0000000000e+00 -4.4721471353e+01 1.0000100000e+04 1.0000000000e+04 0.0000e+00 -1.0000e+00
      -24  1    1    2    0    0 +3.1228343167e+02 +4.1123936266e+02 +1.1376786148e+02 5.3474718535e+02 7.9829010000e+01 0.0000e+00 0.0000e+00
       24  1    1    2    0    0 -1.5075057668e+03 -2.5427395825e+03 -7.3865764831e+02 3.0479642409e+03 7.9829010000e+01 0.0000e+00 0.0000e+00
       22  1    1    2    0    0 -3.6914231601e+03 -5.6744440043e+03 -1.5722647123e+03 6.9496716491e+03 0.0000000000e+00 0.0000e+00 -1.0000e+00
       22  1    1    2    0    0 +4.8866454952e+03 +7.8059442241e+03 +2.1971544992e+03 9.4678169247e+03 0.0000000000e+00 0.0000e+00 -1.0000e+00
</event>
<event>
 6      1 +1.4834189e-01 1.00200800e+04 7.81653100e-03 6.93751500e-02
  1000022 -1    0    0    0    0 +0.0000000000e+00 +0.0000000000e+00 +4.4721471353e+01 1.0000100000e+04 1.0000000000e+04 0.0000e+00 1.0000e+00
  1000022 -1    0    0    0    0 -0.0000000000e+00 -0.0000000000e+00 -4.4721471353e+01 1.0000100000e+04 1.0000000000e+04 0.0000e+00 1.0000e+00
      -24  1    1    2    0    0 +1.8549123841e+03 +4.6890629078e+03 -6.7948574255e+03 8.4619425081e+03 7.9829010000e+01 0.0000e+00 -1.0000e+00
       24  1    1    2    0    0 -2.1757772792e+00 +4.5246409666e+00 +5.7623664573e+01 9.8581762710e+01 7.9829010000e+01 0.0000e+00 -1.0000e+00
       22  1    1    2    0    0 -2.0789354476e+03 -5.3827628934e+03 +8.0709309885e+03 9.9214936367e+03 0.0000000000e+00 0.0000e+00 -1.0000e+00
       22  1    1    2    0    0 +2.2619884078e+02 +6.8917534465e+02 -1.3336972276e+03 1.5181820925e+03 0.0000000000e+00 0.0000e+00 -1.0000e+00
</event>
<event>
 6      1 +1.4834189e-01 1.07585100e+04 7.81653100e-03 6.89486100e-02
  1000022 -1    0    0    0    0 +0.0000000000e+00 +0.0000000000e+00 +4.4721471353e+01 1.0000100000e+04 1.0000000000e+04 0.0000e+00 -1.0000e+00
  1000022 -1    0    0    0    0 -0.0000000000e+00 -0.0000000000e+00 -4.4721471353e+01 1.0000100000e+04 1.0000000000e+04 0.0000e+00 -1.0000e+00
      -24  1    1    2    0    0 +2.9213858518e+03 -2.5508494726e+03 -8.3881569840e+03 9.2416924092e+03 7.9829010000e+01 0.0000e+00 -1.0000e+00
       24  1    1    2    0    0 -2.6147824018e+03 +3.7410911846e+03 +4.0307626950e+03 6.0898498204e+03 7.9829010000e+01 0.0000e+00 -1.0000e+00
       22  1    1    2    0    0 -1.9479582841e+02 -1.3604100368e+03 +4.1747395646e+03 4.3951235836e+03 0.0000000000e+00 0.0000e+00 -1.0000e+00
       22  1    1    2    0    0 -1.1180762153e+02 +1.7016832484e+02 +1.8265472442e+02 2.7353418683e+02 0.0000000000e+00 0.0000e+00 -1.0000e+00
</event>
<event>
 6      1 +1.4834189e-01 1.00814400e+04 7.81653100e-03 6.93383200e-02
  1000022 -1    0    0    0    0 +0.0000000000e+00 +0.0000000000e+00 +4.4721471353e+01 1.0000100000e+04 1.0000000000e+04 0.0000e+00 1.0000e+00
  1000022 -1    0    0    0    0 -0.0000000000e+00 -0.0000000000e+00 -4.4721471353e+01 1.0000100000e+04 1.0000000000e+04 0.0000e+00 1.0000e+00
      -24  1    1    2    0    0 +5.9541832055e+03 -7.4418075135e+03 -2.4131442541e+03 9.8317055781e+03 7.9829010000e+01 0.0000e+00 1.0000e+00
       24  1    1    2    0    0 -6.1867735840e+03 +7.3778148095e+03 +2.3805849047e+03 9.9187638293e+03 7.9829010000e+01 0.0000e+00 1.0000e+00
       22  1    1    2    0    0 +1.9783816954e+01 -8.8975180771e+00 -3.3149042255e+00 2.1944334832e+01 0.0000000000e+00 0.0000e+00 -1.0000e+00
       22  1    1    2    0    0 +2.1280656154e+02 +7.2890222112e+01 +3.5874253646e+01 2.2778625769e+02 0.0000000000e+00 0.0000e+00 -1.0000e+00
</event>
<event>
 6      1 +1.4834189e-01 1.15210300e+04 7.81653100e-03 6.85428400e-02
  1000022 -1    0    0    0    0 +0.0000000000e+00 +0.0000000000e+00 +4.4721471353e+01 1.0000100000e+04 1.0000000000e+04 0.0000e+00 -1.0000e+00
  1000022 -1    0    0    0    0 -0.0000000000e+00 -0.0000000000e+00 -4.4721471353e+01 1.0000100000e+04 1.0000000000e+04 0.0000e+00 -1.0000e+00
      -24  1    1    2    0    0 +4.1453793977e+03 +6.5329215091e+03 -1.2464336832e+03 7.8372956683e+03 7.9829010000e+01 0.0000e+00 -1.0000e+00
       24  1    1    2    0    0 -6.5503270636e+02 +7.5421359740e+01 +2.1628072247e+02 6.9850286302e+02 7.9829010000e+01 0.0000e+00 1.0000e+00
       22  1    1    2    0    0 +9.6237918880e+02 -1.7438273413e+03 -3.0988344101e+03 3.6837321021e+03 0.0000000000e+00 0.0000e+00 1.0000e+00
       22  1    1    2    0    0 -4.4527258802e+03 -4.8645155276e+03 +4.1289873708e+03 7.7806693665e+03 0.0000000000e+00 0.0000e+00 -1.0000e+00
</event>
<event>
 6      1 +1.4834189e-01 1.00252700e+04 7.81653100e-03 6.93720200e-02
  1000022 -1    0    0    0    0 +0.0000000000e+00 +0.0000000000e+00 +4.4721471353e+01 1.0000100000e+04 1.0000000000e+04 0.0000e+00 -1.0000e+00
  1000022 -1    0    0    0    0 -0.0000000000e+00 -0.0000000000e+00 -4.4721471353e+01 1.0000100000e+04 1.0000000000e+04 0.0000e+00 -1.0000e+00
      -24  1    1    2    0    0 +3.3567351341e+03 -1.3869895215e+03 -7.4992182540e+03 8.3328301186e+03 7.9829010000e+01 0.0000e+00 1.0000e+00
       24  1    1    2    0    0 -3.9966658200e+03 +2.0608620655e+03 +8.7753481973e+03 9.8607098520e+03 7.9829010000e+01 0.0000e+00 1.0000e+00
       22  1    1    2    0    0 +6.9533324599e+02 -7.2037824829e+02 -1.3645242618e+03 1.6924419059e+03 0.0000000000e+00 0.0000e+00 -1.0000e+00
       22  1    1    2    0    0 -5.5402560114e+01 +4.6505704284e+01 +8.8394318522e+01 1.1421812354e+02 0.0000000000e+00 0.0000e+00 1.0000e+00
</event>
<event>
 6      1 +1.4834189e-01 1.00035400e+04 7.81653100e-03 6.93851200e-02
  1000022 -1    0    0    0    0 +0.0000000000e+00 +0.0000000000e+00 +4.4721471353e+01 1.0000100000e+04 1.0000000000e+04 0.0000e+00 1.0000e+00
  1000022 -1    0    0    0    0 -0.0000000000e+00 -0.0000000000e+00 -4.4721471353e+01 1.0000100000e+04 1.0000000000e+04 0.0000e+00 1.0000e+00
      -24  1    1    2    0    0 -5.0786102999e+03 +8.5350088054e+03 +9.0024123641e+02 9.9727360760e+03 7.9829010000e+01 0.0000e+00 -1.0000e+00
       24  1    1    2    0    0 +1.4100802149e+03 -2.4066341950e+03 -2.2856374476e+02 2.7997907810e+03 7.9829010000e+01 0.0000e+00 0.0000e+00
       22  1    1    2    0    0 +1.2692709567e+00 +2.5626377533e+01 +1.7051877280e+01 3.0807284739e+01 0.0000000000e+00 0.0000e+00 -1.0000e+00
       22  1    1    2    0    0 +3.6672608140e+03 -6.1540009879e+03 -6.8872936893e+02 7.1968658582e+03 0.0000000000e+00 0.0000e+00 -1.0000e+00
</event>
<event>
 6      1 +1.4834189e-01 8.42057800e+03 7.81653100e-03 7.04412600e-02
  1000022 -1    0    0    0    0 +0.0000000000e+00 +0.0000000000e+00 +4.4721471353e+01 1.0000100000e+04 1.0000000000e+04 0.0000e+00 -1.0000e+00
  1000022 -1    0    0    0    0 -0.0000000000e+00 -0.0000000000e+00 -4.4721471353e+01 1.0000100000e+04 1.0000000000e+04 0.0000e+00 -1.0000e+00
      -24  1    1    2    0    0 +2.7008819102e+03 +4.9653922171e+03 -3.9640646882e+03 6.9043511271e+03 7.9829010000e+01 0.0000e+00 -1.0000e+00
       24  1    1    2    0    0 -1.6265606731e+02 -2.3940429953e+03 -1.6470520507e+03 2.9115377360e+03 7.9829010000e+01 0.0000e+00 -1.0000e+00
       22  1    1    2    0    0 +7.7840886554e+02 +1.2540464030e+03 -1.0544254821e+03 1.8139365590e+03 0.0000000000e+00 0.0000e+00 -1.0000e+00
       22  1    1    2    0    0 -3.3166347084e+03 -3.8253956248e+03 +6.6655422210e+03 8.3703745779e+03 0.0000000000e+00 0.0000e+00 -1.0000e+00
</event>
<event>
 6      1 +1.4834189e-01 1.00203700e+04 7.81653100e-03 6.93749700e-02
  1000022 -1    0    0    0    0 +0.0000000000e+00 +0.0000000000e+00 +4.4721471353e+01 1.0000100000e+04 1.0000000000e+04 0.0000e+00 -1.0000e+00
  1000022 -1    0    0    0    0 -0.0000000000e+00 -0.0000000000e+00 -4.4721471353e+01 1.0000100000e+04 1.0000000000e+04 0.0000e+00 -1.0000e+00
      -24  1    1    2    0    0 +2.2964314864e+03 +3.4449261666e+03 +9.0026081873e+03 9.9093108091e+03 7.9829010000e+01 0.0000e+00 -1.0000e+00
       24  1    1    2    0    0 -1.4257172568e+03 -2.7417148076e+03 -6.5701950132e+03 7.2610953006e+03 7.9829010000e+01 0.0000e+00 -1.0000e+00
       22  1    1    2    0    0 +5.5402943928e+01 +9.6144303790e+01 -4.4762408815e+00 1.1105516683e+02 0.0000000000e+00 0.0000e+00 1.0000e+00
       22  1    1    2    0    0 -9.2611717356e+02 -7.9935566272e+02 -2.4279369333e+03 2.7187387235e+03 0.0000000000e+00 0.0000e+00 -1.0000e+00
</event>
<event>
 6      1 +1.4834189e-01 1.00592300e+04 7.81653100e-03 6.93516100e-02
  1000022 -1    0    0    0    0 +0.0000000000e+00 +0.0000000000e+00 +4.4721471353e+01 1.0000100000e+04 1.0000000000e+04 0.0000e+00 1.0000e+00
  1000022 -1    0    0    0    0 -0.0000000000e+00 -0.0000000000e+00 -4.4721471353e+01 1.0000100000e+04 1.0000000000e+04 0.0000e+00 1.0000e+00
      -24  1    1    2    0    0 -3.7463265904e+03 -1.7469290912e+03 +4.0665237776e+03 5.7991130767e+03 7.9829010000e+01 0.0000e+00 -1.0000e+00
       24  1    1    2    0    0 +5.5232737752e+03 +2.5168282655e+03 -7.7772463825e+03 9.8657443550e+03 7.9829010000e+01 0.0000e+00 -1.0000e+00
       22  1    1    2    0    0 -1.8172949824e+03 -7.8746001320e+02 +3.7717322477e+03 4.2601195375e+03 0.0000000000e+00 0.0000e+00 -1.0000e+00
       22  1    1    2    0    0 +4.0347797605e+01 +1.7560838881e+01 -6.1009642831e+01 7.5223030729e+01 0.0000000000e+00 0.0000e+00 -1.0000e+00
</event>
<event>
 6      1 +1.4834189e-01 1.00619000e+04 7.81653100e-03 6.93500100e-02
  1000022 -1    0    0    0    0 +0.0000000000e+00 +0.0000000000e+00 +4.4721471353e+01 1.0000100000e+04 1.0000000000e+04 0.0000e+00 1.0000e+00
  1000022 -1    0    0    0    0 -0.0000000000e+00 -0.0000000000e+00 -4.4721471353e+01 1.0000100000e+04 1.0000000000e+04 0.0000e+00 1.0000e+00
      -24  1    1    2    0    0 +3.8579382381e+03 +8.7777514731e+03 -7.3396096760e+02 9.6165315860e+03 7.9829010000e+01 0.0000e+00 -1.0000e+00
       24  1    1    2    0    0 -4.0192446038e+03 -8.8492416237e+03 +4.7495751174e+02 9.7311541869e+03 7.9829010000e+01 0.0000e+00 -1.0000e+00
       22  1    1    2    0    0 +2.6405703859e+02 +2.5133108365e+02 +2.5584634435e+02 4.4536590031e+02 0.0000000000e+00 0.0000e+00 1.0000e+00
       22  1    1    2    0    0 -1.0275067290e+02 -1.7984093298e+02 +3.1571115083e+00 2.0714832683e+02 0.0000000000e+00 0.0000e+00 1.0000e+00
</event>
<event>
 6      1 +1.4834189e-01 1.00021800e+04 7.81653100e-03 6.93859400e-02
  1000022 -1    0    0    0    0 +0.0000000000e+00 +0.0000000000e+00 +4.4721471353e+01 1.0000100000e+04 1.0000000000e+04 0.0000e+00 1.0000e+00
  1000022 -1    0    0    0    0 -0.0000000000e+00 -0.0000000000e+00 -4.4721471353e+01 1.0000100000e+04 1.0000000000e+04 0.0000e+00 1.0000e+00
      -24  1    1    2    0    0 -2.1148783264e+03 -6.9874354302e+03 -5.9222761163e+03 9.4008877929e+03 7.9829010000e+01 0.0000e+00 -1.0000e+00
       24  1    1    2    0    0 +2.1643315338e+03 +7.3922225273e+03 +6.2177446287e+03 9.8992931980e+03 7.9829010000e+01 0.0000e+00 -1.0000e+00
       22  1    1    2    0    0 +2.4610509675e+01 +7.5240413628e+01 +5.8991299419e+01 9.8725733406e+01 0.0000000000e+00 0.0000e+00 1.0000e+00
       22  1    1    2    0    0 -7.4063717072e+01 -4.8002751076e+02 -3.5445981179e+02 6.0129327573e+02 0.0000000000e+00 0.0000e+00 -1.0000e+00
</event>
<event>
 6      1 +1.4834189e-01 9.97006700e+03 7.81653100e-03 6.94053600e-02
  1000022 -1    0    0    0    0 +0.0000000000e+00 +0.0000000000e+00 +4.4721471353e+01 1.0000100000e+04 1.0000000000e+04 0.0000e+00 1.0000e+00
  1000022 -1    0    0    0    0 -0.0000000000e+00 -0.0000000000e+00 -4.4721471353e+01 1.0000100000e+04 1.0000000000e+04 0.0000e+00 1.0000e+00
      -24  1    1    2    0    0 +1.5653379902e+02 -1.6679841398e+02 -4.4315568365e-01 2.4227548033e+02 7.9829010000e+01 0.0000e+00 1.0000e+00
       24  1    1    2    0    0 -6.3794162467e+02 -3.5222874937e+03 -6.0223036259e+03 7.0062823479e+03 7.9829010000e+01 0.0000e+00 -1.0000e+00
       22  1    1    2    0    0 +1.6082420582e+03 +5.6925362187e+03 +7.8401446779e+03 9.8213685242e+03 0.0000000000e+00 0.0000e+00 -1.0000e+00
       22  1    1    2    0    0 -1.1268342326e+03 -2.0034503109e+03 -1.8173978963e+03 2.9302736476e+03 0.0000000000e+00 0.0000e+00 -1.0000e+00
</event>
<event>
 6      1 +1.4834189e-01 6.53427300e+03 7.81653100e-03 7.20569300e-02
  1000022 -1    0    0    0    0 +0.0000000000e+00 +0.0000000000e+00 +4.4721471353e+01 1.0000100000e+04 1.0000000000e+04 0.0000e+00 -1.0000e+00
  1000022 -1    0    0    0    0 -0.0000000000e+00 -0.0000000000e+00 -4.4721471353e+01 1.0000100000e+04 1.0000000000e+04 0.0000e+00 -1.0000e+00
      -24  1    1    2    0    0 +4.7753157004e+03 -1.5419623998e+03 -2.7686216218e+03 5.7317472411e+03 7.9829010000e+01 0.0000e+00 -1.0000e+00
       24  1    1    2    0    0 -7.8278250782e+03 +9.7726399002e+02 -2.3529580888e+03 8.2324160973e+03 7.9829010000e+01 0.0000e+00 -1.0000e+00
       22  1    1    2    0    0 -2.5729398034e+01 -4.0280846383e+00 -7.5619558134e+00 2.7118454321e+01 0.0000000000e+00 0.0000e+00 -1.0000e+00
       22  1    1    2    0    0 +3.0782387758e+03 +5.6872649446e+02 +5.1291416665e+03 6.0089182072e+03 0.0000000000e+00 0.0000e+00 -1.0000e+00
</event>
<event>
 6      1 +1.4834189e-01 1.00097200e+04 7.81653100e-03 6.93813900e-02
  1000022 -1    0    0    0    0 +0.0000000000e+00 +0.0000000000e+00 +4.4721471353e+01 1.0000100000e+04 1.0000000000e+04 0.0000e+00 1.0000e+00
  1000022 -1    0    0    0    0 -0.0000000000e+00 -0.0000000000e+00 -4.4721471353e+01 1.0000100000e+04 1.0000000000e+04 0.0000e+00 1.0000e+00
      -24  1    1    2    0    0 -5.1508914814e+03 +1.4896692229e+03 -8.4292654000e+03 9.9904797333e+03 7.9829010000e+01 0.0000e+00 1.0000e+00
       24  1    1    2    0    0 +4.9701408236e+03 -1.4290438313e+03 +8.1713995835e+03 9.6707088624e+03 7.9829010000e+01 0.0000e+00 1.0000e+00
       22  1    1    2    0    0 +1.5922535386e+02 -1.0912260301e+01 +1.5356690560e+02 2.2148269737e+02 0.0000000000e+00 0.0000e+00 1.0000e+00
       22  1    1    2    0    0 +2.1525303993e+01 -4.9713131301e+01 +1.0429891091e+02 1.1752870693e+02 0.0000000000e+00 0.0000e+00 -1.0000e+00
</event>
<event>
 6      1 +1.4834189e-01 1.00001000e+04 7.81653100e-03 6.93871900e-02
  1000022 -1    0    0    0    0 +0.0000000000e+00 +0.0000000000e+00 +4.4721471353e+01 1.0000100000e+04 1.0000000000e+04 0.0000e+00 -1.0000e+00
  1000022 -1    0    0    0    0 -0.0000000000e+00 -0.0000000000e+00 -4.4721471353e+01 1.0000100000e+04 1.0000000000e+04 0.0000e+00 -1.0000e+00
      -24  1    1    2    0    0 -4.6110961753e+03 +3.8978054104e+03 -7.7820490999e+03 9.8499622242e+03 7.9829010000e+01 0.0000e+00 1.0000e+00
       24  1    1    2    0    0 +4.2988601356e+03 -3.6337750599e+03 +7.2536594571e+03 9.1818553595e+03 7.9829010000e+01 0.0000e+00 1.0000e+00
       22  1    1    2    0    0 +3.8258542188e+02 -3.2546131022e+02 +6.4593676778e+02 8.1824872591e+02 0.0000000000e+00 0.0000e+00 -1.0000e+00
       22  1    1    2    0    0 -7.0349382213e+01 +6.1430959750e+01 -1.1754712501e+02 1.5013369040e+02 0.0000000000e+00 0.0000e+00 -1.0000e+00
</event>
<event>
 6      1 +1.4834189e-01 1.00147200e+04 7.81653100e-03 6.93783700e-02
  1000022 -1    0    0    0    0 +0.0000000000e+00 +0.0000000000e+00 +4.4721471353e+01 1.0000100000e+04 1.0000000000e+04 0.0000e+00 -1.0000e+00
  1000022 -1    0    0    0    0 -0.0000000000e+00 -0.0000000000e+00 -4.4721471353e+01 1.0000100000e+04 1.0000000000e+04 0.0000e+00 -1.0000e+00
      -24  1    1    2    0    0 +1.0167583138e+03 +6.5991535219e+03 +5.1597031071e+03 8.4386926416e+03 7.9829010000e+01 0.0000e+00 1.0000e+00
       24  1    1    2    0    0 -1.0960225390e+03 -7.7771577906e+03 -6.1658659888e+03 9.9854756906e+03 7.9829010000e+01 0.0000e+00 1.0000e+00
       22  1    1    2    0    0 +3.8663366498e+01 +1.1671008657e+03 +9.9024515863e+02 1.5310796063e+03 0.0000000000e+00 0.0000e+00 -1.0000e+00
       22  1    1    2    0    0 +4.0600858771e+01 +1.0903402963e+01 +1.5917723067e+01 4.4952061541e+01 0.0000000000e+00 0.0000e+00 -1.0000e+00
</event>
<event>
 6      1 +1.4834189e-01 1.00315400e+04 7.81653100e-03 6.93682400e-02
  1000022 -1    0    0    0    0 +0.0000000000e+00 +0.0000000000e+00 +4.4721471353e+01 1.0000100000e+04 1.0000000000e+04 0.0000e+00 1.0000e+00
  1000022 -1    0    0    0    0 -0.0000000000e+00 -0.0000000000e+00 -4.4721471353e+01 1.0000100000e+04 1.0000000000e+04 0.0000e+00 1.0000e+00
      -24  1    1    2    0    0 -1.9979790301e+03 +7.3697724530e+03 -5.7729007320e+03 9.5727854748e+03 7.9829010000e+01 0.0000e+00 1.0000e+00
       24  1    1    2    0    0 +2.2240971099e+03 -7.7466968219e+03 +5.8659914601e+03 9.9686582892e+03 7.9829010000e+01 0.0000e+00 1.0000e+00
       22  1    1    2    0    0 -1.6963627928e+01 +1.9562746701e+01 -3.0458641345e+01 3.9977425674e+01 0.0000000000e+00 0.0000e+00 -1.0000e+00
       22  1    1    2    0    0 -2.0915445184e+02 +3.5736162220e+02 -6.2632086830e+01 4.1877881041e+02 0.0000000000e+00 0.0000e+00 1.0000e+00
</event>
<event>
 6      1 +1.4834189e-01 1.00002700e+04 7.81653100e-03 6.93870900e-02
  1000022 -1    0    0    0    0 +0.0000000000e+00 +0.0000000000e+00 +4.4721471353e+01 1.0000100000e+04 1.0000000000e+04 0.0000e+00 1.0000e+00
  1000022 -1    0    0    0    0 -0.0000000000e+00 -0.0000000000e+00 -4.4721471353e+01 1.0000100000e+04 1.0000000000e+04 0.0000e+00 1.0000e+00
      -24  1    1    2    0    0 -1.6583279875e+03 +8.5932814636e+03 +4.7310995898e+03 9.9490810645e+03 7.9829010000e+01 0.0000e+00 1.0000e+00
       24  1    1    2    0    0 +1.6586141954e+03 -8.6235367637e+03 -4.7539558279e+03 9.9861331879e+03 7.9829010000e+01 0.0000e+00 1.0000e+00
       22  1    1    2    0    0 -2.4308001828e+00 +4.3013678281e+01 +2.7646542569e+01 5.1190005126e+01 0.0000000000e+00 0.0000e+00 -1.0000e+00
       22  1    1    2    0    0 +2.1445923180e+00 -1.2758378271e+01 -4.7903045343e+00 1.3795742454e+01 0.0000000000e+00 0.0000e+00 1.0000e+00
</event>
<event>
 6      1 +1.4834189e-01 1.00110200e+04 7.81653100e-03 6.93806100e-02
  1000022 -1    0    0    0    0 +0.0000000000e+00 +0.0000000000e+00 +4.4721471353e+01 1.0000100000e+04 1.0000000000e+04 0.0000e+00 1.0000e+00
  1000022 -1    0    0    0    0 -0.0000000000e+00 -0.0000000000e+00 -4.4721471353e+01 1.0000100000e+04 1.0000000000e+04 0.0000e+00 1.0000e+00
      -24  1    1    2    0    0 +3.6705178156e+03 +4.1989697337e+02 -9.2561118106e+03 9.9664935170e+03 7.9829010000e+01 0.0000e+00 1.0000e+00
       24  1    1    2    0    0 -3.6285470659e+03 -4.3864804837e+02 +9.1535738047e+03 9.8566247767e+03 7.9829010000e+01 0.0000e+00 1.0000e+00
       22  1    1    2    0    0 -3.2854595919e+01 +6.1063681072e+01 +1.1297493709e+02 1.3255766304e+02 0.0000000000e+00 0.0000e+00 1.0000e+00
       22  1    1    2    0    0 -9.1161537141e+00 -4.2312606071e+01 -1.0436931174e+01 4.4524043206e+01 0.0000000000e+00 0.0000e+00 -1.0000e+00
</event>
<event>
 6      1 +1.4834189e-01 1.15270200e+04 7.81653100e-03 6.85397800e-02
  1000022 -1    0    0    0    0 +0.0000000000e+00 +0.0000000000e+00 +4.4721471353e+01 1.0000100000e+04 1.0000000000e+04 0.0000e+00 1.0000e+00
  1000022 -1    0    0    0    0 -0.0000000000e+00 -0.0000000000e+00 -4.4721471353e+01 1.0000100000e+04 1.0000000000e+04 0.0000e+00 1.0000e+00
      -24  1    1    2    0    0 +3.6335240609e+03 -2.2728989608e+03 +1.8421710929e+03 4.6656761346e+03 7.9829010000e+01 0.0000e+00 1.0000e+00
       24  1    1    2    0    0 -5.9398109863e+03 +5.7667394378e+03 -1.6339455543e+03 8.4387670333e+03 7.9829010000e+01 0.0000e+00 1.0000e+00
       22  1    1    2    0    0 -5.7906059455e+02 -2.0537138903e+03 -2.2325469019e+03 3.0882547797e+03 0.0000000000e+00 0.0000e+00 1.0000e+00
       22  1    1    2    0    0 +2.8853475200e+03 -1.4401265867e+03 +2.0243213633e+03 3.8075020524e+03 0.0000000000e+00 0.0000e+00 1.0000e+00
</event>
<event>
 6      1 +1.4834189e-01 1.00089200e+04 7.81653100e-03 6.93818700e-02
  1000022 -1    0    0    0    0 +0.0000000000e+00 +0.0000000000e+00 +4.4721471353e+01 1.0000100000e+04 1.0000000000e+04 0.0000e+00 1.0000e+00
  1000022 -1    0    0    0    0 -0.0000000000e+00 -0.0000000000e+00 -4.4721471353e+01 1.0000100000e+04 1.0000000000e+04 0.0000e+00 1.0000e+00
      -24  1    1    2    0    0 -9.3788048918e+03 +9.5220102671e+02 +3.2406477062e+03 9.9687932178e+03 7.9829010000e+01 0.0000e+00 -1.0000e+00
       24  1    1    2    0    0 +9.3220497499e+03 -9.5477744826e+02 -3.2316142993e+03 9.9127148231e+03 7.9829010000e+01 0.0000e+00 -1.0000e+00
       22  1    1    2    0    0 -9.4352543664e+00 +3.3707259804e+01 +1.9628891848e+01 4.0130995298e+01 0.0000000000e+00 0.0000e+00 1.0000e+00
       22  1    1    2    0    0 +6.6190396297e+01 -3.1130838253e+01 -2.8662298740e+01 7.8560963725e+01 0.0000000000e+00 0.0000e+00 -1.0000e+00
</event>
<event>
 6      1 +1.4834189e-01 1.00068800e+04 7.81653100e-03 6.93831000e-02
  1000022 -1    0    0    0    0 +0.0000000000e+00 +0.0000000000e+00 +4.4721471353e+01 1.0000100000e+04 1.0000000000e+04 0.0000e+00 1.0000e+00
  1000022 -1    0    0    0    0 -0.0000000000e+00 -0.0000000000e+00 -4.4721471353e+01 1.0000100000e+04 1.0000000000e+04 0.0000e+00 1.0000e+00
      -24  1    1    2    0    0 -6.1845486892e+02 -6.5895638390e+02 -1.3236362447e+02 9.1684390203e+02 7.9829010000e+01 0.0000e+00 -1.0000e+00
       24  1    1    2    0    0 +4.7147544815e+03 +7.4283305099e+03 +4.8689391825e+02 8.8120623207e+03 7.9829010000e+01 0.0000e+00 -1.0000e+00
       22  1    1    2    0    0 -4.5531302769e+03 -7.8585038229e+03 -3.7635677445e+02 9.0900342174e+03 0.0000000000e+00 0.0000e+00 -1.0000e+00
       22  1    1    2    0    0 +4.5683066430e+02 +1.0891296969e+03 +2.1826480675e+01 1.1812595598e+03 0.0000000000e+00 0.0000e+00 -1.0000e+00
</event>
<event>
 6      1 +1.4834189e-01 1.00196600e+04 7.81653100e-03 6.93754000e-02
  1000022 -1    0    0    0    0 +0.0000000000e+00 +0.0000000000e+00 +4.4721471353e+01 1.0000100000e+04 1.0000000000e+04 0.0000e+00 -1.0000e+00
  1000022 -1    0    0    0    0 -0.0000000000e+00 -0.0000000000e+00 -4.4721471353e+01 1.0000100000e+04 1.0000000000e+04 0.0000e+00 -1.0000e+00
      -24  1    1    2    0    0 +2.8758981958e+03 +4.0997670523e+03 -8.6328383294e+03 9.9805385931e+03 7.9829010000e+01 0.0000e+00 -1.0000e+00
       24  1    1    2    0    0 -2.7026874269e+03 -3.6091343755e+03 +7.8019178481e+03 9.0114740774e+03 7.9829010000e+01 0.0000e+00 -1.0000e+00
       22  1    1    2    0    0 -2.2159754004e+02 -3.4710315763e+02 +5.2890282482e+02 6.7031654454e+02 0.0000000000e+00 0.0000e+00 1.0000e+00
       22  1    1    2    0    0 +4.8386771120e+01 -1.4352951919e+02 +3.0201765649e+02 3.3787078496e+02 0.0000000000e+00 0.0000e+00 1.0000e+00
</event>
<event>
 6      1 +1.4834189e-01 1.04358600e+04 7.81653100e-03 6.91306100e-02
  1000022 -1    0    0    0    0 +0.0000000000e+00 +0.0000000000e+00 +4.4721471353e+01 1.0000100000e+04 1.0000000000e+04 0.0000e+00 1.0000e+00
  1000022 -1    0    0    0    0 -0.0000000000e+00 -0.0000000000e+00 -4.4721471353e+01 1.0000100000e+04 1.0000000000e+04 0.0000e+00 1.0000e+00
      -24  1    1    2    0    0 +1.5956945916e+03 +3.2987914060e+02 -4.6006907481e+03 4.8813716830e+03 7.9829010000e+01 0.0000e+00 -1.0000e+00
       24  1    1    2    0    0 -5.4233756124e+03 +5.2643290191e+02 +7.8600277268e+03 9.5643370481e+03 7.9829010000e+01 0.0000e+00 -1.0000e+00
       22  1    1    2    0    0 +2.6285311348e+03 +1.3410401170e+02 -2.9773005668e+03 3.9738493275e+03 0.0000000000e+00 0.0000e+00 -1.0000e+00
       22  1    1    2    0    0 +1.1991498859e+03 -9.9041605421e+02 -2.8203641190e+02 1.5806419414e+03 0.0000000000e+00 0.0000e+00 -1.0000e+00
</event>
<event>
 6      1 +1.4834189e-01 1.00107600e+04 7.81653100e-03 6.93807600e-02
  1000022 -1    0    0    0    0 +0.0000000000e+00 +0.0000000000e+00 +4.4721471353e+01 1.0000100000e+04 1.0000000000e+04 0.0000e+00 -1.0000e+00
  1000022 -1    0    0    0    0 -0.0000000000e+00 -0.0000000000e+00 -4.4721471353e+01 1.0000100000e+04 1.0000000000e+04 0.0000e+00 -1.0000e+00
      -24  1    1    2    0    0 -6.3658471733e+03 +1.8158051992e+03 -7.4233144275e+03 9.9465133849e+03 7.9829010000e+01 0.0000e+00 1.0000e+00
       24  1    1    2    0    0 +6.2496157221e+03 -1.7393179802e+03 +7.2222879429e+03 9.7082820062e+03 7.9829010000e+01 0.0000e+00 1.0000e+00
       22  1    1    2    0    0 -6.3318786884e+01 -9.7822271590e+00 -4.7907381244e+00 6.4248828102e+01 0.0000000000e+00 0.0000e+00 -1.0000e+00
       22  1    1    2    0    0 +1.7955023802e+02 -6.6704991812e+01 +2.0581722275e+02 2.8115578082e+02 0.0000000000e+00 0.0000e+00 1.0000e+00
</event>
<event>
 6      1 +1.4834189e-01 6.38160800e+03 7.81653100e-03 7.22113700e-02
  1000022 -1    0    0    0    0 +0.0000000000e+00 +0.0000000000e+00 +4.4721471353e+01 1.0000100000e+04 1.0000000000e+04 0.0000e+00 -1.0000e+00
  1000022 -1    0    0    0    0 -0.0000000000e+00 -0.0000000000e+00 -4.4721471353e+01 1.0000100000e+04 1.0000000000e+04 0.0000e+00 -1.0000e+00
      -24  1    1    2    0    0 -2.1549717837e+03 +4.5205802121e+03 +1.5643152379e+03 5.2471900744e+03 7.9829010000e+01 0.0000e+00 -1.0000e+00
       24  1    1    2    0    0 +3.2707018823e+02 -1.3120035859e+03 +1.2083955998e+02 1.3598908734e+03 7.9829010000e+01 0.0000e+00 -1.0000e+00
       22  1    1    2    0    0 -5.4944733098e+03 -2.0899792871e+03 -6.7189259609e+02 5.9168141794e+03 0.0000000000e+00 0.0000e+00 -1.0000e+00
       22  1    1    2    0    0 +7.3223749053e+03 -1.1185973390e+03 -1.0132622018e+03 7.4763048728e+03 0.0000000000e+00 0.0000e+00 -1.0000e+00
</event>
<event>
 6      1 +1.4834189e-01 1.00218700e+04 7.81653100e-03 6.93740700e-02
  1000022 -1    0    0    0    0 +0.0000000000e+00 +0.0000000000e+00 +4.4721471353e+01 1.0000100000e+04 1.0000000000e+04 0.0000e+00 -1.0000e+00
  1000022 -1    0    0    0    0 -0.0000000000e+00 -0.0000000000e+00 -4.4721471353e+01 1.0000100000e+04 1.0000000000e+04 0.0000e+00 -1.0000e+00
      -24  1    1    2    0    0 +6.7872289781e+03 +5.8850207158e+03 -2.7076823263e+03 9.3828493687e+03 7.9829010000e+01 0.0000e+00 1.0000e+00
       24  1    1    2    0    0 -1.6484777268e+03 -1.0989026248e+03 +2.9400214004e+02 2.0044639492e+03 7.9829010000e+01 0.0000e+00 -1.0000e+00
       22  1    1    2    0    0 -5.5464508203e+03 -5.1996900989e+03 +2.5453607194e+03 8.0174032590e+03 0.0000000000e+00 0.0000e+00 1.0000e+00
       22  1    1    2    0    0 +4.0769956901e+02 +4.1357200791e+02 -1.3168053312e+02 5.9548342303e+02 0.0000000000e+00 0.0000e+00 1.0000e+00
</event>
<event>
 6      1 +1.4834189e-01 1.08531600e+04 7.81653100e-03 6.88964300e-02
  1000022 -1    0    0    0    0 +0.0000000000e+00 +0.0000000000e+00 +4.4721471353e+01 1.0000100000e+04 1.0000000000e+04 0.0000e+00 -1.0000e+00
  1000022 -1    0    0    0    0 -0.0000000000e+00 -0.0000000000e+00 -4.4721471353e+01 1.0000100000e+04 1.0000000000e+04 0.0000e+00 -1.0000e+00
      -24  1    1    2    0    0 -5.3821828778e+03 -7.3933609793e+03 +1.7960743905e+02 9.1470383515e+03 7.9829010000e+01 0.0000e+00 1.0000e+00
       24  1    1    2    0    0 +1.8697267485e+03 +3.5679196957e+02 -4.7118029901e+02 1.9625397241e+03 7.9829010000e+01 0.0000e+00 -1.0000e+00
       22  1    1    2    0    0 +3.4584515272e+03 +6.7100404438e+03 -9.4750236436e+02 7.6081068903e+03 0.0000000000e+00 0.0000e+00 1.0000e+00
       22  1    1    2    0    0 +5.4004602134e+01 +3.2652856592e+02 +1.2390752243e+03 1.2825150342e+03 0.0000000000e+00 0.0000e+00 -1.0000e+00
</event>
<event>
 6      1 +1.4834189e-01 1.00078100e+04 7.81653100e-03 6.93825400e-02
  1000022 -1    0    0    0    0 +0.0000000000e+00 +0.0000000000e+00 +4.4721471353e+01 1.0000100000e+04 1.0000000000e+04 0.0000e+00 -1.0000e+00
  1000022 -1    0    0    0    0 -0.0000000000e+00 -0.0000000000e+00 -4.4721471353e+01 1.0000100000e+04 1.0000000000e+04 0.0000e+00 -1.0000e+00
      -24  1    1    2    0    0 -1.5555422467e+03 +7.5075676811e+03 -1.9527540655e+03 7.9121997750e+03 7.9829010000e+01 0.0000e+00 1.0000e+00
       24  1    1    2    0    0 +2.2128724703e+03 -9.3806357071e+03 +2.5623385302e+03 9.9732182496e+03 7.9829010000e+01 0.0000e+00 1.0000e+00
       22  1    1    2    0    0 +7.7069277287e+00 -1.6956450493e+01 +4.5261742640e+00 1.9167790739e+01 0.0000000000e+00 0.0000e+00 1.0000e+00
       22  1    1    2    0    0 -6.6503715133e+02 +1.8900244765e+03 -6.1411063888e+02 2.0956141847e+03 0.0000000000e+00 0.0000e+00 1.0000e+00
</event>
<event>
 6      1 +1.4834189e-01 1.00038100e+04 7.81653100e-03 6.93849600e-02
  1000022 -1    0    0    0    0 +0.0000000000e+00 +0.0000000000e+00 +4.4721471353e+01 1.0000100000e+04 1.0000000000e+04 0.0000e+00 1.0000e+00
  1000022 -1    0    0    0    0 -0.0000000000e+00 -0.0000000000e+00 -4.4721471353e+01 1.0000100000e+04 1.0000000000e+04 0.0000e+00 1.0000e+00
      -24  1    1    2    0    0 +3.6756586329e+03 +8.6618171724e+03 +2.9099438984e+03 9.8494512170e+03 7.9829010000e+01 0.0000e+00 1.0000e+00
       24  1    1    2    0    0 -3.3231420728e+03 -7.5608970385e+03 -2.6537745661e+03 8.6752135064e+03 7.9829010000e+01 0.0000e+00 1.0000e+00
       22  1    1    2    0    0 +1.1090019918e+02 +1.0643566214e+02 +1.4102935016e+01 1.5435769216e+02 0.0000000000e+00 0.0000e+00 -1.0000e+00
       22  1    1    2    0    0 -4.6341675937e+02 -1.2073557960e+03 -2.7027226725e+02 1.3211775844e+03 0.0000000000e+00 0.0000e+00 -1.0000e+00
</event>
<event>
 6      1 +1.4834189e-01 1.02191800e+04 7.81653100e-03 6.92565900e-02
  1000022 -1    0    0    0    0 +0.0000000000e+00 +0.0000000000e+00 +4.4721471353e+01 1.0000100000e+04 1.0000000000e+04 0.0000e+00 1.0000e+00
  1000022 -1    0    0    0    0 -0.0000000000e+00 -0.0000000000e+00 -4.4721471353e+01 1.0000100000e+04 1.0000000000e+04 0.0000e+00 1.0000e+00
      -24  1    1    2    0    0 -7.7712383430e+03 +2.1929492155e+03 -2.6593173860e+03 8.5017358978e+03 7.9829010000e+01 0.0000e+00 -1.0000e+00
       24  1    1    2    0    0 +8.4461559699e+03 -2.1626141658e+03 +4.1754740881e+03 9.6672336906e+03 7.9829010000e+01 0.0000e+00 -1.0000e+00
       22  1    1    2    0    0 -7.6653838094e+02 +3.4005764593e+01 -1.5365094993e+03 1.7174396417e+03 0.0000000000e+00 0.0000e+00 -1.0000e+00
       22  1    1    2    0    0 +9.1620754103e+01 -6.4340814269e+01 +2.0352797155e+01 1.1379076990e+02 0.0000000000e+00 0.0000e+00 1.0000e+00
</event>
<event>
 6      1 +1.4834189e-01 1.01854500e+04 7.81653100e-03 6.92764800e-02
  1000022 -1    0    0    0    0 +0.0000000000e+00 +0.0000000000e+00 +4.4721471353e+01 1.0000100000e+04 1.0000000000e+04 0.0000e+00 1.0000e+00
  1000022 -1    0    0    0    0 -0.0000000000e+00 -0.0000000000e+00 -4.4721471353e+01 1.0000100000e+04 1.0000000000e+04 0.0000e+00 1.0000e+00
      -24  1    1    2    0    0 +2.3866176104e+03 +2.8918039045e+03 +9.0699769097e+03 9.8147504937e+03 7.9829010000e+01 0.0000e+00 -1.0000e+00
       24  1    1    2    0    0 -1.1080390382e+03 +7.2269443451e+00 -4.2031866394e+03 4.3475226664e+03 7.9829010000e+01 0.0000e+00 -1.0000e+00
       22  1    1    2    0    0 -1.2255544719e+03 -2.9195753113e+03 -4.7601747837e+03 5.7170943436e+03 0.0000000000e+00 0.0000e+00 -1.0000e+00
       22  1    1    2    0    0 -5.3024100328e+01 +2.0544462457e+01 -1.0661548668e+02 1.2083249626e+02 0.0000000000e+00 0.0000e+00 -1.0000e+00
</event>
<event>
 6      1 +1.4834189e-01 1.00034500e+04 7.81653100e-03 6.93851700e-02
  1000022 -1    0    0    0    0 +0.0000000000e+00 +0.0000000000e+00 +4.4721471353e+01 1.0000100000e+04 1.0000000000e+04 0.0000e+00 -1.0000e+00
  1000022 -1    0    0    0    0 -0.0000000000e+00 -0.0000000000e+00 -4.4721471353e+01 1.0000100000e+04 1.0000000000e+04 0.0000e+00 -1.0000e+00
      -24  1    1    2    0    0 +6.4993311072e+03 -7.3721772549e+03 -9.6302540575e+02 9.8754287462e+03 7.9829010000e+01 0.0000e+00 1.0000e+00
       24  1    1    2    0    0 -2.1646936097e+03 +1.9808421171e+03 -1.7647967597e+02 2.9406039624e+03 7.9829010000e+01 0.0000e+00 -1.0000e+00
       22  1    1    2    0    0 -4.2902962116e+03 +5.4641925134e+03 +1.2349769029e+03 7.0561469201e+03 0.0000000000e+00 0.0000e+00 1.0000e+00
       22  1    1    2    0    0 -4.4341285844e+01 -7.2857375614e+01 -9.5471821223e+01 1.2802037127e+02 0.0000000000e+00 0.0000e+00 -1.0000e+00
</event>
<event>
 6      1 +1.4834189e-01 8.53212900e+03 7.81653100e-03 7.03594300e-02
  1000022 -1    0    0    0    0 +0.0000000000e+00 +0.0000000000e+00 +4.4721471353e+01 1.0000100000e+04 1.0000000000e+04 0.0000e+00 1.0000e+00
  1000022 -1    0    0    0    0 -0.0000000000e+00 -0.0000000000e+00 -4.4721471353e+01 1.0000100000e+04 1.0000000000e+04 0.0000e+00 1.0000e+00
      -24  1    1    2    0    0 -3.2090374716e+00 -2.7174158783e+03 +1.4227821854e+02 2.7223106207e+03 7.9829010000e+01 0.0000e+00 1.0000e+00
       24  1    1    2    0    0 -6.7862067829e+03 -3.1767686571e+03 +1.7931936751e+03 7.7049580030e+03 7.9829010000e+01 0.0000e+00 1.0000e+00
       22  1    1    2    0    0 +6.9649760867e+03 +5.9712679458e+03 -1.9548677028e+03 9.3802153762e+03 0.0000000000e+00 0.0000e+00 1.0000e+00
       22  1    1    2    0    0 -1.7556026633e+02 -7.7083410440e+01 +1.9395809211e+01 1.9271600010e+02 0.0000000000e+00 0.0000e+00 1.0000e+00
</event>
<event>
 6      1 +1.4834189e-01 1.00091200e+04 7.81653100e-03 6.93817500e-02
  1000022 -1    0    0    0    0 +0.0000000000e+00 +0.0000000000e+00 +4.4721471353e+01 1.0000100000e+04 1.0000000000e+04 0.0000e+00 1.0000e+00
  1000022 -1    0    0    0    0 -0.0000000000e+00 -0.0000000000e+00 -4.4721471353e+01 1.0000100000e+04 1.0000000000e+04 0.0000e+00 1.0000e+00
      -24  1    1    2    0    0 -2.7934638621e+03 +4.7774872652e+03 +8.0038034351e+03 9.7311390400e+03 7.9829010000e+01 0.0000e+00 -1.0000e+00
       24  1    1    2    0    0 +2.9154401053e+03 -4.9376520294e+03 -8.1813863122e+03 9.9910786820e+03 7.9829010000e+01 0.0000e+00 -1.0000e+00
       22  1    1    2    0    0 -3.0053617939e+01 +1.8718502223e+01 +3.5074052961e+00 3.5579547055e+01 0.0000000000e+00 0.0000e+00 -1.0000e+00
       22  1    1    2    0    0 -9.1922625306e+01 +1.4144626197e+02 +1.7407547178e+02 2.4240273089e+02 0.0000000000e+00 0.0000e+00 1.0000e+00
</event>
<event>
 6      1 +1.4834189e-01 1.00052500e+04 7.81653100e-03 6.93840900e-02
  1000022 -1    0    0    0    0 +0.0000000000e+00 +0.0000000000e+00 +4.4721471353e+01 1.0000100000e+04 1.0000000000e+04 0.0000e+00 -1.0000e+00
  1000022 -1    0    0    0    0 -0.0000000000e+00 -0.0000000000e+00 -4.4721471353e+01 1.0000100000e+04 1.0000000000e+04 0.0000e+00 -1.0000e+00
      -24  1    1    2    0    0 -3.1650261809e+03 -9.2890659191e+03 +8.5745162075e+02 9.8511792355e+03 7.9829010000e+01 0.0000e+00 -1.0000e+00
       24  1    1    2    0    0 +2.5049222859e+02 +5.4780988633e+02 -1.0585827814e+02 6.1678251762e+02 7.9829010000e+01 0.0000e+00 0.0000e+00
       22  1    1    2    0    0 -4.8183021802e+01 -1.3404869758e+02 +1.9488678030e+01 1.4377226953e+02 0.0000000000e+00 0.0000e+00 -1.0000e+00
       22  1    1    2    0    0 +2.9627169742e+03 +8.8753047304e+03 -7.7108202064e+02 9.3884659774e+03 0.0000000000e+00 0.0000e+00 -1.0000e+00
</event>
<event>
 6      1 +1.4834189e-01 1.01818000e+04 7.81653100e-03 6.92786400e-02
  1000022 -1    0    0    0    0 +0.0000000000e+00 +0.0000000000e+00 +4.4721471353e+01 1.0000100000e+04 1.0000000000e+04 0.0000e+00 1.0000e+00
  1000022 -1    0    0    0    0 -0.0000000000e+00 -0.0000000000e+00 -4.4721471353e+01 1.0000100000e+04 1.0000000000e+04 0.0000e+00 1.0000e+00
      -24  1    1    2    0    0 +4.9448615838e+03 -7.9697473482e+03 -2.9027837497e+03 9.8184038950e+03 7.9829010000e+01 0.0000e+00 1.0000e+00
       24  1    1    2    0    0 -2.1304587281e+03 +4.8099546083e+03 +2.7545987361e+03 5.9387460455e+03 7.9829010000e+01 0.0000e+00 1.0000e+00
       22  1    1    2    0    0 -2.7973896037e+03 +3.1191071538e+03 +1.2156431071e+02 4.1915386093e+03 0.0000000000e+00 0.0000e+00 1.0000e+00
       22  1    1    2    0    0 -1.7013252057e+01 +4.0685586183e+01 +2.6620702889e+01 5.1511450095e+01 0.0000000000e+00 0.0000e+00 1.0000e+00
</event>
<event>
 6      1 +1.4834189e-01 1.09709900e+04 7.81653100e-03 6.88322200e-02
  1000022 -1    0    0    0    0 +0.0000000000e+00 +0.0000000000e+00 +4.4721471353e+01 1.0000100000e+04 1.0000000000e+04 0.0000e+00 1.0000e+00
  1000022 -1    0    0    0    0 -0.0000000000e+00 -0.0000000000e+00 -4.4721471353e+01 1.0000100000e+04 1.0000000000e+04 0.0000e+00 1.0000e+00
      -24  1    1    2    0    0 -2.3943923009e+02 +4.9110726599e+02 +1.0238583249e+03 1.1632609475e+03 7.9829010000e+01 0.0000e+00 0.0000e+00
       24  1    1    2    0    0 +3.3989969555e+03 -1.0266215137e+03 -6.8778691515e+03 7.7407098364e+03 7.9829010000e+01 0.0000e+00 1.0000e+00
       22  1    1    2    0    0 -1.6398113953e+03 -2.4882611292e+03 -1.2467134519e+03 3.2302816116e+03 0.0000000000e+00 0.0000e+00 -1.0000e+00
       22  1    1    2    0    0 -1.5197463301e+03 +3.0237753769e+03 +7.1007242784e+03 7.8659476044e+03 0.0000000000e+00 0.0000e+00 1.0000e+00
</event>
<event>
 6      1 +1.4834189e-01 1.00654800e+04 7.81653100e-03 6.93478700e-02
  1000022 -1    0    0    0    0 +0.0000000000e+00 +0.0000000000e+00 +4.4721471353e+01 1.0000100000e+04 1.0000000000e+04 0.0000e+00 -1.0000e+00
  1000022 -1    0    0    0    0 -0.0000000000e+00 -0.0000000000e+00 -4.4721471353e+01 1.0000100000e+04 1.0000000000e+04 0.0000e+00 -1.0000e+00
      -24  1    1    2    0    0 +6.0288238661e+03 -2.6817830135e+03 -7.4265508273e+03 9.9347223012e+03 7.9829010000e+01 0.0000e+00 -1.0000e+00
       24  1    1    2    0    0 -5.7759373553e+03 +2.8635366365e+03 +7.0105950387e+03 9.5245005049e+03 7.9829010000e+01 0.0000e+00 -1.0000e+00
       22  1    1    2    0    0 -2.2910757338e+02 -2.0855313428e+02 +3.7880595150e+02 4.8936554730e+02 0.0000000000e+00 0.0000e+00 -1.0000e+00
       22  1    1    2    0    0 -2.3778937462e+01 +2.6799511252e+01 +3.7149837109e+01 5.1611646626e+01 0.0000000000e+00 0.0000e+00 1.0000e+00
</event>
<event>
 6      1 +1.4834189e-01 1.01670300e+04 7.81653100e-03 6.92873800e-02
  1000022 -1    0    0    0    0 +0.0000000000e+00 +0.0000000000e+00 +4.4721471353e+01 1.0000100000e+04 1.0000000000e+04 0.0000e+00 1.0000e+00
  1000022 -1    0    0    0    0 -0.0000000000e+00 -0.0000000000e+00 -4.4721471353e+01 1.0000100000e+04 1.0000000000e+04 0.0000e+00 1.0000e+00
      -24  1    1    2    0    0 +2.2234382581e+03 -4.7191577309e+02 +2.8423785412e+03 3.6403118859e+03 7.9829010000e+01 0.0000e+00 -1.0000e+00
       24  1    1    2    0    0 -1.5192578005e+03 -2.3197019468e+02 -5.6791281483e+02 1.6403816847e+03 7.9829010000e+01 0.0000e+00 1.0000e+00
       22  1    1    2    0    0 -4.6299256459e+03 +1.5899355591e+03 -6.9813728476e+03 8.5266449091e+03 0.0000000000e+00 0.0000e+00 -1.0000e+00
       22  1    1    2    0    0 +3.9257451883e+03 -8.8604959129e+02 +4.7069071212e+03 6.1928615203e+03 0.0000000000e+00 0.0000e+00 -1.0000e+00
</event>
<event>
 6      1 +1.4834189e-01 1.00914100e+04 7.81653100e-03 6.93323600e-02
  1000022 -1    0    0    0    0 +0.0000000000e+00 +0.0000000000e+00 +4.4721471353e+01 1.0000100000e+04 1.0000000000e+04 0.0000e+00 1.0000e+00
  1000022 -1    0    0    0    0 -0.0000000000e+00 -0.0000000000e+00 -4.4721471353e+01 1.0000100000e+04 1.0000000000e+04 0.0000e+00 1.0000e+00
      -24  1    1    2    0    0 -1.5109391517e+03 +1.3661269603e+03 -1.3187085306e+03 2.4278807326e+03 7.9829010000e+01 0.0000e+00 0.0000e+00
       24  1    1    2    0    0 +6.0570710951e+03 -5.7762062040e+03 +5.2757654827e+03 9.8940761297e+03 7.9829010000e+01 0.0000e+00 -1.0000e+00
       22  1    1    2    0    0 +1.5681958651e+02 +1.1522706236e+02 -3.2703283439e+01 1.9733008732e+02 0.0000000000e+00 0.0000e+00 1.0000e+00
       22  1    1    2    0    0 -4.7029515298e+03 +4.2948521813e+03 -3.9243536686e+03 7.4809130504e+03 0.0000000000e+00 0.0000e+00 -1.0000e+00
</event>
<event>
 6      1 +1.4834189e-01 1.00098000e+04 7.81653100e-03 6.93813400e-02
  1000022 -1    0    0    0    0 +0.0000000000e+00 +0.0000000000e+00 +4.4721471353e+01 1.0000100000e+04 1.0000000000e+04 0.0000e+00 1.0000e+00
  1000022 -1    0    0    0    0 -0.0000000000e+00 -0.0000000000e+00 -4.4721471353e+01 1.0000100000e+04 1.0000000000e+04 0.0000e+00 1.0000e+00
      -24  1    1    2    0    0 +3.6547260098e+03 +2.9024306544e+03 -5.4953978985e+03 7.2101939394e+03 7.9829010000e+01 0.0000e+00 1.0000e+00
       24  1    1    2    0    0 -5.0242414875e+03 -3.9948436310e+03 +7.6294834668e+03 9.9708158544e+03 7.9829010000e+01 0.0000e+00 1.0000e+00
       22  1    1    2    0    0 +1.3742906576e+03 +1.1310685078e+03 -2.1357771960e+03 2.7802041313e+03 0.0000000000e+00 0.0000e+00 -1.0000e+00
       22  1    1    2    0    0 -4.7751799191e+00 -3.8655531145e+01 +1.6916276718e+00 3.8986074893e+01 0.0000000000e+00 0.0000e+00 -1.0000e+00
</event>
<event>
 6      1 +1.4834189e-01 1.00864300e+04 7.81653100e-03 6.93353300e-02
  1000022 -1    0    0    0    0 +0.0000000000e+00 +0.0000000000e+00 +4.4721471353e+01 1.0000100000e+04 1.0000000000e+04 0.0000e+00 1.0000e+00
  1000022 -1    0    0    0    0 -0.0000000000e+00 -0.0000000000e+00 -4.4721471353e+01 1.0000100000e+04 1.0000000000e+04 0.0000e+00 1.0000e+00
      -24  1    1    2    0    0 +2.1061476934e+02 +1.3510147855e+03 -9.5402779589e+03 9.6380950263e+03 7.9829010000e+01 0.0000e+00 -1.0000e+00
       24  1    1    2    0    0 -1.2816520072e+02 -1.5538227187e+03 +9.7728662610e+03 9.8967711394e+03 7.9829010000e+01 0.0000e+00 -1.0000e+00
       22  1    1    2    0    0 +2.8399566094e+01 +5.3279043811e+01 -2.6898129688e+02 2.7567395585e+02 0.0000000000e+00 0.0000e+00 -1.0000e+00
       22  1    1    2    0    0 -1.1084913471e+02 +1.4952888940e+02 +3.6392994791e+01 1.8965987847e+02 0.0000000000e+00 0.0000e+00 -1.0000e+00
</event>
<event>
 6      1 +1.4834189e-01 1.00012400e+04 7.81653100e-03 6.93865100e-02
  1000022 -1    0    0    0    0 +0.0000000000e+00 +0.0000000000e+00 +4.4721471353e+01 1.0000100000e+04 1.0000000000e+04 0.0000e+00 -1.0000e+00
  1000022 -1    0    0    0    0 -0.0000000000e+00 -0.0000000000e+00 -4.4721471353e+01 1.0000100000e+04 1.0000000000e+04 0.0000e+00 -1.0000e+00
      -24  1    1    2    0    0 -5.1154653871e+03 -8.2157457199e+03 +2.3626437014e+03 9.9626764371e+03 7.9829010000e+01 0.0000e+00 1.0000e+00
       24  1    1    2    0    0 +5.1254670351e+03 +8.2403249780e+03 -2.3567700240e+03 9.9866964351e+03 7.9829010000e+01 0.0000e+00 1.0000e+00
       22  1    1    2    0    0 -1.6389605086e+01 -3.4742332509e+01 -3.3431202434e+00 3.8559373387e+01 0.0000000000e+00 0.0000e+00 -1.0000e+00
       22  1    1    2    0    0 +6.3879570481e+00 +1.0163074393e+01 -2.5305572407e+00 1.2267754331e+01 0.0000000000e+00 0.0000e+00 1.0000e+00
</event>
<event>
 6      1 +1.4834189e-01 9.86381100e+03 7.81653100e-03 6.94701600e-02
  1000022 -1    0    0    0    0 +0.0000000000e+00 +0.0000000000e+00 +4.4721471353e+01 1.0000100000e+04 1.0000000000e+04 0.0000e+00 -1.0000e+00
  1000022 -1    0    0    0    0 -0.0000000000e+00 -0.0000000000e+00 -4.4721471353e+01 1.0000100000e+04 1.0000000000e+04 0.0000e+00 -1.0000e+00
      -24  1    1    2    0    0 -1.7057551608e+01 -8.4852408976e+03 -3.2055087586e+03 9.0709020016e+03 7.9829010000e+01 0.0000e+00 -1.0000e+00
       24  1    1    2    0    0 +2.4066789077e+02 +9.5948842979e+01 +1.6417600951e+01 2.7160526979e+02 7.9829010000e+01 0.0000e+00 -1.0000e+00
       22  1    1    2    0    0 -2.7834093778e+01 -7.8693177700e+02 -2.9425742063e+02 8.4060917674e+02 0.0000000000e+00 0.0000e+00 -1.0000e+00
       22  1    1    2    0    0 -1.9577624539e+02 +9.1762238316e+03 +3.4833485783e+03 9.8170835519e+03 0.0000000000e+00 0.0000e+00 -1.0000e+00
</event>
<event>
 6      1 +1.4834189e-01 1.00874000e+04 7.81653100e-03 6.93347500e-02
  1000022 -1    0    0    0    0 +0.0000000000e+00 +0.0000000000e+00 +4.4721471353e+01 1.0000100000e+04 1.0000000000e+04 0.0000e+00 -1.0000e+00
  1000022 -1    0    0    0    0 -0.0000000000e+00 -0.0000000000e+00 -4.4721471353e+01 1.0000100000e+04 1.0000000000e+04 0.0000e+00 -1.0000e+00
      -24  1    1    2    0    0 -2.1185363690e+03 -6.7811785157e+03 -5.8458588421e+03 9.2007074012e+03 7.9829010000e+01 0.0000e+00 1.0000e+00
       24  1    1    2    0    0 +2.3000754026e+03 +6.5780500286e+03 +6.2492958197e+03 9.3606174982e+03 7.9829010000e+01 0.0000e+00 1.0000e+00
       22  1    1    2    0    0 +2.7641334402e+00 +7.2543622892e+02 +4.4116370036e+01 7.2678168439e+02 0.0000000000e+00 0.0000e+00 1.0000e+00
       22  1    1    2    0    0 -1.8430316701e+02 -5.2230774176e+02 -4.4755334759e+02 7.1209341621e+02 0.0000000000e+00 0.0000e+00 -1.0000e+00
</event>
<event>
 6      1 +1.4834189e-01 1.02699400e+04 7.81653100e-03 6.92267900e-02
  1000022 -1    0    0    0    0 +0.0000000000e+00 +0.0000000000e+00 +4.4721471353e+01 1.0000100000e+04 1.0000000000e+04 0.0000e+00 1.0000e+00
  1000022 -1    0    0    0    0 -0.0000000000e+00 -0.0000000000e+00 -4.4721471353e+01 1.0000100000e+04 1.0000000000e+04 0.0000e+00 1.0000e+00
      -24  1    1    2    0    0 +1.4432539168e+03 -2.3996328958e+03 +9.2619843253e+03 9.6763601740e+03 7.9829010000e+01 0.0000e+00 1.0000e+00
       24  1    1    2    0    0 -1.0182838931e+03 +1.6118806628e+03 -8.3342234153e+03 8.5498955529e+03 7.9829010000e+01 0.0000e+00 1.0000e+00
       22  1    1    2    0    0 -1.5749124883e+02 +2.9841685334e+02 -1.1311030547e+03 1.1803602129e+03 0.0000000000e+00 0.0000e+00 1.0000e+00
       22  1    1    2    0    0 -2.6747877493e+02 +4.8933537966e+02 +2.0334214466e+02 5.9358406029e+02 0.0000000000e+00 0.0000e+00 -1.0000e+00
</event>
<event>
 6      1 +1.4834189e-01 1.00060100e+04 7.81653100e-03 6.93836300e-02
  1000022 -1    0    0    0    0 +0.0000000000e+00 +0.0000000000e+00 +4.4721471353e+01 1.0000100000e+04 1.0000000000e+04 0.0000e+00 -1.0000e+00
  1000022 -1    0    0    0    0 -0.0000000000e+00 -0.0000000000e+00 -4.4721471353e+01 1.0000100000e+04 1.0000000000e+04 0.0000e+00 -1.0000e+00
      -24  1    1    2    0    0 -6.6196077595e+03 -6.3247832531e+03 +3.9622346399e+03 9.9763603634e+03 7.9829010000e+01 0.0000e+00 1.0000e+00
       24  1    1    2    0    0 +6.2783909491e+03 +5.9410156836e+03 -3.8504242172e+03 9.4628748055e+03 7.9829010000e+01 0.0000e+00 1.0000e+00
       22  1    1    2    0    0 +3.5220749083e+02 +3.9608785576e+02 -1.1855411582e+02 5.4313054090e+02 0.0000000000e+00 0.0000e+00 1.0000e+00
       22  1    1    2    0    0 -1.0990680449e+01 -1.2320286182e+01 +6.7436930953e+00 1.7834290143e+01 0.0000000000e+00 0.0000e+00 -1.0000e+00
</event>
<event>
 6      1 +1.4834189e-01 7.09965100e+03 7.81653100e-03 7.15200700e-02
  1000022 -1    0    0    0    0 +0.0000000000e+00 +0.0000000000e+00 +4.4721471353e+01 1.0000100000e+04 1.0000000000e+04 0.0000e+00 1.0000e+00
  1000022 -1    0    0    0    0 -0.0000000000e+00 -0.0000000000e+00 -4.4721471353e+01 1.0000100000e+04 1.0000000000e+04 0.0000e+00 1.0000e+00
      -24  1    1    2    0    0 -3.4983178535e+02 -3.8615920888e+03 +9.6795682936e+02 3.9971976225e+03 7.9829010000e+01 0.0000e+00 -1.0000e+00
       24  1    1    2    0    0 +6.4975887460e+03 +3.1459897188e+02 +1.3266427382e+03 6.6395772193e+03 7.9829010000e+01 0.0000e+00 -1.0000e+00
       22  1    1    2    0    0 +4.7170510446e+02 -7.6523004510e+02 +4.4328735534e+02 1.0022905801e+03 0.0000000000e+00 0.0000e+00 1.0000e+00
       22  1    1    2    0    0 -6.6194620651e+03 +4.3122231621e+03 -2.7378869229e+03 8.3611345781e+03 0.0000000000e+00 0.0000e+00 -1.0000e+00
</event>
<event>
 6      1 +1.4834189e-01 1.00002500e+04 7.81653100e-03 6.93871100e-02
  1000022 -1    0    0    0    0 +0.0000000000e+00 +0.0000000000e+00 +4.4721471353e+01 1.0000100000e+04 1.0000000000e+04 0.0000e+00 1.0000e+00
  1000022 -1    0    0    0    0 -0.0000000000e+00 -0.0000000000e+00 -4.4721471353e+01 1.0000100000e+04 1.0000000000e+04 0.0000e+00 1.0000e+00
      -24  1    1    2    0    0 +5.4661273924e+03 -6.5996190931e+03 -4.9309769031e+03 9.8870838336e+03 7.9829010000e+01 0.0000e+00 -1.0000e+00
       24  1    1    2    0    0 -5.4983335219e+03 +6.6486801679e+03 +4.9718327648e+03 9.9580175339e+03 7.9829010000e+01 0.0000e+00 -1.0000e+00
       22  1    1    2    0    0 +5.6344474744e+01 -7.5611354002e+01 -6.2560829776e+01 1.1316198174e+02 0.0000000000e+00 0.0000e+00 -1.0000e+00
       22  1    1    2    0    0 -2.4138345303e+01 +2.6550279158e+01 +2.1704968082e+01 4.1936650758e+01 0.0000000000e+00 0.0000e+00 -1.0000e+00
</event>
<event>
 6      1 +1.4834189e-01 1.00154300e+04 7.81653100e-03 6.93779400e-02
  1000022 -1    0    0    0    0 +0.0000000000e+00 +0.0000000000e+00 +4.4721471353e+01 1.0000100000e+04 1.0000000000e+04 0.0000e+00 -1.0000e+00
  1000022 -1    0    0    0    0 -0.0000000000e+00 -0.0000000000e+00 -4.4721471353e+01 1.0000100000e+04 1.0000000000e+04 0.0000e+00 -1.0000e+00
      -24  1    1    2    0    0 +8.6215183619e+03 +4.7446997057e+03 +8.1414527121e+02 9.8748143960e+03 7.9829010000e+01 0.0000e+00 -1.0000e+00
       24  1    1    2    0    0 -8.4909079452e+03 -4.6060199710e+03 -8.3508435690e+02 9.6961165556e+03 7.9829010000e+01 0.0000e+00 -1.0000e+00
       22  1    1    2    0    0 +1.3322986798e+02 -2.2957458175e+01 +3.8687320037e+01 1.4061988245e+02 0.0000000000e+00 0.0000e+00 -1.0000e+00
       22  1    1    2    0    0 -2.6384028473e+02 -1.1572227660e+02 -1.7748234347e+01 2.8864916589e+02 0.0000000000e+00 0.0000e+00 -1.0000e+00
</event>
<event>
 6      1 +1.4834189e-01 1.03380400e+04 7.81653100e-03 6.91870900e-02
  1000022 -1    0    0    0    0 +0.0000000000e+00 +0.0000000000e+00 +4.4721471353e+01 1.0000100000e+04 1.0000000000e+04 0.0000e+00 1.0000e+00
  1000022 -1    0    0    0    0 -0.0000000000e+00 -0.0000000000e+00 -4.4721471353e+01 1.0000100000e+04 1.0000000000e+04 0.0000e+00 1.0000e+00
      -24  1    1    2    0    0 +2.0064795845e+03 +7.7383680905e+03 -2.1628194914e+03 8.2820566196e+03 7.9829010000e+01 0.0000e+00 1.0000e+00
       24  1    1    2    0    0 -9.5733082265e+02 -8.2603882486e+03 +2.7641521452e+03 8.7634129239e+03 7.9829010000e+01 0.0000e+00 1.0000e+00
       22  1    1    2    0    0 +3.0574217166e+02 +1.2921373243e+03 -3.7626438742e+02 1.3800985579e+03 0.0000000000e+00 0.0000e+00 1.0000e+00
       22  1    1    2    0    0 -1.3548909335e+03 -7.7011716619e+02 -2.2506826637e+02 1.5746318985e+03 0.0000000000e+00 0.0000e+00 1.0000e+00
</event>
<event>
 6      1 +1.4834189e-01 1.00012200e+04 7.81653100e-03 6.93865200e-02
  1000022 -1    0    0    0    0 +0.0000000000e+00 +0.0000000000e+00 +4.4721471353e+01 1.0000100000e+04 1.0000000000e+04 0.0000e+00 -1.0000e+00
  1000022 -1    0    0    0    0 -0.0000000000e+00 -0.0000000000e+00 -4.4721471353e+01 1.0000100000e+04 1.0000000000e+04 0.0000e+00 -1.0000e+00
      -24  1    1    2    0    0 +7.9775164352e+03 -5.8706642185e+01 +5.3060211315e+03 9.5814637641e+03 7.9829010000e+01 0.0000e+00 1.0000e+00
       24  1    1    2    0    0 -8.0599395907e+03 +1.4241972033e+01 -5.3285419923e+03 9.6624304124e+03 7.9829010000e+01 0.0000e+00 1.0000e+00
       22  1    1    2    0    0 +3.6355081468e+02 +3.3161735146e+01 +2.0719196600e+02 4.1975874774e+02 0.0000000000e+00 0.0000e+00 1.0000e+00
       22  1    1    2    0    0 -2.8112765920e+02 +1.1302935006e+01 -1.8467110515e+02 3.3654707573e+02 0.0000000000e+00 0.0000e+00 1.0000e+00
</event>
<event>
 6      1 +1.4834189e-01 1.00001700e+04 7.81653100e-03 6.93871500e-02
  1000022 -1    0    0    0    0 +0.0000000000e+00 +0.0000000000e+00 +4.4721471353e+01 1.0000100000e+04 1.0000000000e+04 0.0000e+00 1.0000e+00
  1000022 -1    0    0    0    0 -0.0000000000e+00 -0.0000000000e+00 -4.4721471353e+01 1.0000100000e+04 1.0000000000e+04 0.0000e+00 1.0000e+00
      -24  1    1    2    0    0 +6.3006921774e+02 -2.9181300706e+03 +9.4688738237e+03 9.9286662996e+03 7.9829010000e+01 0.0000e+00 1.0000e+00
       24  1    1    2    0    0 -6.3802249798e+02 +2.9244783755e+03 -9.5053457857e+03 9.9658224775e+03 7.9829010000e+01 0.0000e+00 1.0000e+00
       22  1    1    2    0    0 +2.4732547054e+00 +9.9650839692e+00 -3.2781379679e+01 3.4351691967e+01 0.0000000000e+00 0.0000e+00 -1.0000e+00
       22  1    1    2    0    0 +5.4800255353e+00 -1.6313388878e+01 +6.9253341589e+01 7.1359530953e+01 0.0000000000e+00 0.0000e+00 1.0000e+00
</event>
<event>
 6      1 +1.4834189e-01 1.01083900e+04 7.81653100e-03 6.93222200e-02
  1000022 -1    0    0    0    0 +0.0000000000e+00 +0.0000000000e+00 +4.4721471353e+01 1.0000100000e+04 1.0000000000e+04 0.0000e+00 -1.0000e+00
  1000022 -1    0    0    0    0 -0.0000000000e+00 -0.0000000000e+00 -4.4721471353e+01 1.0000100000e+04 1.0000000000e+04 0.0000e+00 -1.0000e+00
      -24  1    1    2    0    0 +8.5981929492e+03 -2.6704401520e+03 +4.0964986709e+03 9.8918070457e+03 7.9829010000e+01 0.0000e+00 -1.0000e+00
       24  1    1    2    0    0 -7.7221524249e+03 +2.5916646915e+03 -4.1476265913e+03 9.1409815096e+03 7.9829010000e+01 0.0000e+00 -1.0000e+00
       22  1    1    2    0    0 -3.6307836651e+02 -2.6813589755e+01 +2.0979259115e+02 4.2018781530e+02 0.0000000000e+00 0.0000e+00 -1.0000e+00
       22  1    1    2    0    0 -5.1296215783e+02 +1.0558905017e+02 -1.5866467071e+02 5.4722362944e+02 0.0000000000e+00 0.0000e+00 1.0000e+00
</event>
<event>
 6      1 +1.4834189e-01 1.00327000e+04 7.81653100e-03 6.93675500e-02
  1000022 -1    0    0    0    0 +0.0000000000e+00 +0.0000000000e+00 +4.4721471353e+01 1.0000100000e+04 1.0000000000e+04 0.0000e+00 -1.0000e+00
  1000022 -1    0    0    0    0 -0.0000000000e+00 -0.0000000000e+00 -4.4721471353e+01 1.0000100000e+04 1.0000000000e+04 0.0000e+00 -1.0000e+00
      -24  1    1    2    0    0 +5.0476512320e+03 +5.7912132727e+03 +1.3852782766e+03 7.8065551112e+03 7.9829010000e+01 0.0000e+00 -1.0000e+00
       24  1    1    2    0    0 -5.0575100502e+03 -5.1248807404e+03 -1.1962004767e+03 7.2993204315e+03 7.9829010000e+01 0.0000e+00 -1.0000e+00
       22  1    1    2    0    0 +1.3359035470e+03 +1.6602128679e+03 +3.5879304319e+02 2.1609436600e+03 0.0000000000e+00 0.0000e+00 -1.0000e+00
       22  1    1    2    0    0 -1.3260447288e+03 -2.3265454003e+03 -5.4787084308e+02 2.7333807973e+03 0.0000000000e+00 0.0000e+00 1.0000e+00
</event>
<event>
 6      1 +1.4834189e-01 1.00021000e+04 7.81653100e-03 6.93859800e-02
  1000022 -1    0    0    0    0 +0.0000000000e+00 +0.0000000000e+00 +4.4721471353e+01 1.0000100000e+04 1.0000000000e+04 0.0000e+00 -1.0000e+00
  1000022 -1    0    0    0    0 -0.0000000000e+00 -0.0000000000e+00 -4.4721471353e+01 1.0000100000e+04 1.0000000000e+04 0.0000e+00 -1.0000e+00
      -24  1    1    2    0    0 -5.8449868580e+03 +1.4688561641e+03 +7.9368280882e+03 9.9659933059e+03 7.9829010000e+01 0.0000e+00 1.0000e+00
       24  1    1    2    0    0 +5.8471977769e+03 -1.4751866300e+03 -7.9169723711e+03 9.9524229025e+03 7.9829010000e+01 0.0000e+00 1.0000e+00
       22  1    1    2    0    0 -2.9719552895e+01 +1.2800361638e+01 +1.6026098166e+01 3.6110066530e+01 0.0000000000e+00 0.0000e+00 -1.0000e+00
       22  1    1    2    0    0 +2.7508633979e+01 -6.4698956755e+00 -3.5881815272e+01 4.5673725058e+01 0.0000000000e+00 0.0000e+00 1.0000e+00
</event>
<event>
 6      1 +1.4834189e-01 1.00048300e+04 7.81653100e-03 6.93843400e-02
  1000022 -1    0    0    0    0 +0.0000000000e+00 +0.0000000000e+00 +4.4721471353e+01 1.0000100000e+04 1.0000000000e+04 0.0000e+00 -1.0000e+00
  1000022 -1    0    0    0    0 -0.0000000000e+00 -0.0000000000e+00 -4.4721471353e+01 1.0000100000e+04 1.0000000000e+04 0.0000e+00 -1.0000e+00
      -24  1    1    2    0    0 -5.0466990401e+03 -6.3603800708e+03 +2.4301958366e+03 8.4756020625e+03 7.9829010000e+01 0.0000e+00 1.0000e+00
       24  1    1    2    0    0 +5.9998462755e+03 +7.4855982712e+03 -2.8051235445e+03 9.9953703072e+03 7.9829010000e+01 0.0000e+00 1.0000e+00
       22  1    1    2    0    0 -5.5141868681e+01 -2.2810298634e+01 +4.2010889509e+00 5.9821271750e+01 0.0000000000e+00 0.0000e+00 1.0000e+00
       22  1    1    2    0    0 -8.9800536666e+02 -1.1024079018e+03 +3.7072661897e+02 1.4694063585e+03 0.0000000000e+00 0.0000e+00 -1.0000e+00
</event>
<event>
 6      1 +1.4834189e-01 1.00007500e+04 7.81653100e-03 6.93868000e-02
  1000022 -1    0    0    0    0 +0.0000000000e+00 +0.0000000000e+00 +4.4721471353e+01 1.0000100000e+04 1.0000000000e+04 0.0000e+00 1.0000e+00
  1000022 -1    0    0    0    0 -0.0000000000e+00 -0.0000000000e+00 -4.4721471353e+01 1.0000100000e+04 1.0000000000e+04 0.0000e+00 1.0000e+00
      -24  1    1    2    0    0 -8.8808799813e+02 +3.1712334734e+03 +8.3284906305e+03 8.9563134653e+03 7.9829010000e+01 0.0000e+00 1.0000e+00
       24  1    1    2    0    0 +9.8623082842e+02 -3.5226776204e+03 -9.2363917711e+03 9.9347478319e+03 7.9829010000e+01 0.0000e+00 1.0000e+00
       22  1    1    2    0    0 -1.0319494511e+02 +3.8740300853e+02 +9.6301733837e+02 1.0431359843e+03 0.0000000000e+00 0.0000e+00 -1.0000e+00
       22  1    1    2    0    0 +5.0521148107e+00 -3.5958861606e+01 -5.5116197782e+01 6.6002718505e+01 0.0000000000e+00 0.0000e+00 -1.0000e+00
</event>
<event>
 6      1 +1.4834189e-01 1.00062800e+04 7.81653100e-03 6.93834600e-02
  1000022 -1    0    0    0    0 +0.0000000000e+00 +0.0000000000e+00 +4.4721471353e+01 1.0000100000e+04 1.0000000000e+04 0.0000e+00 1.0000e+00
  1000022 -1    0    0    0    0 -0.0000000000e+00 -0.0000000000e+00 -4.4721471353e+01 1.0000100000e+04 1.0000000000e+04 0.0000e+00 1.0000e+00
      -24  1    1    2    0    0 -6.3857267851e+01 -1.9634827212e+02 -1.5871038941e+02 2.7238218217e+02 7.9829010000e+01 0.0000e+00 -1.0000e+00
       24  1    1    2    0    0 +2.2571808892e+02 +6.5707010597e+03 +6.0077232431e+03 8.9064118649e+03 7.9829010000e+01 0.0000e+00 1.0000e+00
       22  1    1    2    0    0 -8.9436930691e+01 +7.5790438804e+02 +7.7476324055e+02 1.0875091286e+03 0.0000000000e+00 0.0000e+00 -1.0000e+00
       22  1    1    2    0    0 -7.2423890377e+01 -7.1322571756e+03 -6.6237760943e+03 9.7338968243e+03 0.0000000000e+00 0.0000e+00 1.0000e+00
</event>
<event>
 6      1 +1.4834189e-01 1.00001100e+04 7.81653100e-03 6.93871900e-02
  1000022 -1    0    0    0    0 +0.0000000000e+00 +0.0000000000e+00 +4.4721471353e+01 1.0000100000e+04 1.0000000000e+04 0.0000e+00 1.0000e+00
  1000022 -1    0    0    0    0 -0.0000000000e+00 -0.0000000000e+00 -4.4721471353e+01 1.0000100000e+04 1.0000000000e+04 0.0000e+00 1.0000e+00
      -24  1    1    2    0    0 -4.2529177251e+03 +8.5399873160e+03 +2.6695587972e+03 9.9071494072e+03 7.9829010000e+01 0.0000e+00 1.0000e+00
       24  1    1    2    0    0 +4.2359062483e+03 -8.5099782348e+03 -2.6622342177e+03 9.8720056220e+03 7.9829010000e+01 0.0000e+00 1.0000e+00
       22  1    1    2    0    0 +5.7935807361e+01 -1.0910676668e+02 -3.3909257480e+01 1.2810418436e+02 0.0000000000e+00 0.0000e+00 1.0000e+00
       22  1    1    2    0    0 -4.0924330525e+01 +7.9097685478e+01 +2.6584677980e+01 9.2940786420e+01 0.0000000000e+00 0.0000e+00 -1.0000e+00
</event>
<event>
 6      1 +1.4834189e-01 7.23966200e+03 7.81653100e-03 7.13949000e-02
  1000022 -1    0    0    0    0 +0.0000000000e+00 +0.0000000000e+00 +4.4721471353e+01 1.0000100000e+04 1.0000000000e+04 0.0000e+00 -1.0000e+00
  1000022 -1    0    0    0    0 -0.0000000000e+00 -0.0000000000e+00 -4.4721471353e+01 1.0000100000e+04 1.0000000000e+04 0.0000e+00 -1.0000e+00
      -24  1    1    2    0    0 -5.3316335039e+03 -3.9012325084e+03 -3.6983051163e+03 7.5716421144e+03 7.9829010000e+01 0.0000e+00 -1.0000e+00
       24  1    1    2    0    0 +3.8288228103e+03 -2.6099453022e+03 +9.0553868822e+01 4.6353286040e+03 7.9829010000e+01 0.0000e+00 -1.0000e+00
       22  1    1    2    0    0 +1.4615684560e+03 +6.6259122863e+03 +3.5587681512e+03 7.6618357285e+03 0.0000000000e+00 0.0000e+00 -1.0000e+00
       22  1    1    2    0    0 +4.1242237549e+01 -1.1473447567e+02 +4.8983096269e+01 1.3139355306e+02 0.0000000000e+00 0.0000e+00 1.0000e+00
</event>
<event>
 6      1 +1.4834189e-01 1.00093400e+04 7.81653100e-03 6.93816200e-02
  1000022 -1    0    0    0    0 +0.0000000000e+00 +0.0000000000e+00 +4.4721471353e+01 1.0000100000e+04 1.0000000000e+04 0.0000e+00 1.0000e+00
  1000022 -1    0    0    0    0 -0.0000000000e+00 -0.0000000000e+00 -4.4721471353e+01 1.0000100000e+04 1.0000000000e+04 0.0000e+00 1.0000e+00
      -24  1    1    2    0    0 +3.0079740892e+03 +2.7084279752e+03 +3.3355707700e+03 5.2455595746e+03 7.9829010000e+01 0.0000e+00 -1.0000e+00
       24  1    1    2    0    0 -5.2970077098e+03 -5.5358037917e+03 -6.3903426494e+03 9.9772875144e+03 7.9829010000e+01 0.0000e+00 -1.0000e+00
       22  1    1    2    0    0 -7.9163368056e+00 -7.5586999602e+00 -8.0292261156e+00 1.3574638320e+01 0.0000000000e+00 0.0000e+00 1.0000e+00
       22  1    1    2    0    0 +2.2969499574e+03 +2.8349345164e+03 +3.0628011055e+03 4.7637782727e+03 0.0000000000e+00 0.0000e+00 -1.0000e+00
</event>
<event>
 6      1 +1.4834189e-01 1.00055200e+04 7.81653100e-03 6.93839200e-02
  1000022 -1    0    0    0    0 +0.0000000000e+00 +0.0000000000e+00 +4.4721471353e+01 1.0000100000e+04 1.0000000000e+04 0.0000e+00 1.0000e+00
  1000022 -1    0    0    0    0 -0.0000000000e+00 -0.0000000000e+00 -4.4721471353e+01 1.0000100000e+04 1.0000000000e+04 0.0000e+00 1.0000e+00
      -24  1    1    2    0    0 +1.5947212326e+03 -8.1674436689e+03 +5.2887070835e+03 9.8603786530e+03 7.9829010000e+01 0.0000e+00 -1.0000e+00
       24  1    1    2    0    0 -1.2943187220e+03 +6.7751374626e+03 -4.5895168441e+03 8.2853959546e+03 7.9829010000e+01 0.0000e+00 -1.0000e+00
       22  1    1    2    0    0 -3.1971761849e+02 +1.5037025198e+03 -7.7167837548e+02 1.7201244544e+03 0.0000000000e+00 0.0000e+00 -1.0000e+00
       22  1    1    2    0    0 +1.9315107873e+01 -1.1139631353e+02 +7.2488136128e+01 1.3430093797e+02 0.0000000000e+00 0.0000e+00 -1.0000e+00
</event>
<event>
 6      1 +1.4834189e-01 1.00012800e+04 7.81653100e-03 6.93864800e-02
  1000022 -1    0    0    0    0 +0.0000000000e+00 +0.0000000000e+00 +4.4721471353e+01 1.0000100000e+04 1.0000000000e+04 0.0000e+00 -1.0000e+00
  1000022 -1    0    0    0    0 -0.0000000000e+00 -0.0000000000e+00 -4.4721471353e+01 1.0000100000e+04 1.0000000000e+04 0.0000e+00 -1.0000e+00
      -24  1    1    2    0    0 +2.0020822718e+03 +3.8059781837e+03 -3.0106973466e+03 5.2501880481e+03 7.9829010000e+01 0.0000e+00 -1.0000e+00
       24  1    1    2    0    0 -3.6816125263e+03 -6.9188688983e+03 +6.0000903886e+03 9.8707889740e+03 7.9829010000e+01 0.0000e+00 -1.0000e+00
       22  1    1    2    0    0 -5.1876387591e+00 -1.0503391680e+02 +7.3208294257e+01 1.2813465426e+02 0.0000000000e+00 0.0000e+00 1.0000e+00
       22  1    1    2    0    0 +1.6847178932e+03 +3.2179246315e+03 -3.0626013363e+03 4.7510883236e+03 0.0000000000e+00 0.0000e+00 -1.0000e+00
</event>
<event>
 6      1 +1.4834189e-01 1.00051800e+04 7.81653100e-03 6.93841300e-02
  1000022 -1    0    0    0    0 +0.0000000000e+00 +0.0000000000e+00 +4.4721471353e+01 1.0000100000e+04 1.0000000000e+04 0.0000e+00 -1.0000e+00
  1000022 -1    0    0    0    0 -0.0000000000e+00 -0.0000000000e+00 -4.4721471353e+01 1.0000100000e+04 1.0000000000e+04 0.0000e+00 -1.0000e+00
      -24  1    1    2    0    0 -4.5444376529e+03 +1.2809680635e+03 +8.4965920621e+03 9.7206605795e+03 7.9829010000e+01 0.0000e+00 -1.0000e+00
       24  1    1    2    0    0 +4.7129910240e+03 -1.2990893325e+03 -8.7174621154e+03 9.9950205548e+03 7.9829010000e+01 0.0000e+00 -1.0000e+00
       22  1    1    2    0    0 -3.2312568251e+01 -1.1883077285e+01 +1.9564454671e+01 3.9598958058e+01 0.0000000000e+00 0.0000e+00 1.0000e+00
       22  1    1    2    0    0 -1.3624080289e+02 +3.0004346277e+01 +2.0130559857e+02 2.4491990769e+02 0.0000000000e+00 0.0000e+00 -1.0000e+00
</event>
<event>
 6      1 +1.4834189e-01 1.01121500e+04 7.81653100e-03 6.93199800e-02
  1000022 -1    0    0    0    0 +0.0000000000e+00 +0.0000000000e+00 +4.4721471353e+01 1.0000100000e+04 1.0000000000e+04 0.0000e+00 1.0000e+00
  1000022 -1    0    0    0    0 -0.0000000000e+00 -0.0000000000e+00 -4.4721471353e+01 1.0000100000e+04 1.0000000000e+04 0.0000e+00 1.0000e+00
      -24  1    1    2    0    0 +7.6739525383e+03 -3.0504364959e+03 +4.2015005974e+03 9.2657266480e+03 7.9829010000e+01 0.0000e+00 1.0000e+00
       24  1    1    2    0    0 -7.7893693521e+03 +3.2921253590e+03 -4.3372109703e+03 9.5042167460e+03 7.9829010000e+01 0.0000e+00 1.0000e+00
       22  1    1    2    0    0 +1.9716120637e+02 +1.8565917220e+02 +5.6030319047e+02 6.2231947966e+02 0.0000000000e+00 0.0000e+00 1.0000e+00
       22  1    1    2    0    0 -8.1744392537e+01 -4.2734803522e+02 -4.2459281751e+02 6.0793712636e+02 0.0000000000e+00 0.0000e+00 1.0000e+00
</event>
<event>
 6      1 +1.4834189e-01 1.00218000e+04 7.81653100e-03 6.93741100e-02
  1000022 -1    0    0    0    0 +0.0000000000e+00 +0.0000000000e+00 +4.4721471353e+01 1.0000100000e+04 1.0000000000e+04 0.0000e+00 -1.0000e+00
  1000022 -1    0    0    0    0 -0.0000000000e+00 -0.0000000000e+00 -4.4721471353e+01 1.0000100000e+04 1.0000000000e+04 0.0000e+00 -1.0000e+00
      -24  1    1    2    0    0 +2.8275018594e+03 -8.2164729683e+03 +4.9047834402e+03 9.9784000756e+03 7.9829010000e+01 0.0000e+00 1.0000e+00
       24  1    1    2    0    0 -2.8127246520e+03 +8.0972023425e+03 -4.9394298203e+03 9.8934546729e+03 7.9829010000e+01 0.0000e+00 1.0000e+00
       22  1    1    2    0    0 -9.3983791737e+00 +1.0806782193e+02 +3.8855345913e+01 1.1522465697e+02 0.0000000000e+00 0.0000e+00 -1.0000e+00
       22  1    1    2    0    0 -5.3788281973e+00 +1.1202803899e+01 -4.2089657724e+00 1.3120594531e+01 0.0000000000e+00 0.0000e+00 -1.0000e+00
</event>
<event>
 6      1 +1.4834189e-01 1.01372800e+04 7.81653100e-03 6.93050200e-02
  1000022 -1    0    0    0    0 +0.0000000000e+00 +0.0000000000e+00 +4.4721471353e+01 1.0000100000e+04 1.0000000000e+04 0.0000e+00 -1.0000e+00
  1000022 -1    0    0    0    0 -0.0000000000e+00 -0.0000000000e+00 -4.4721471353e+01 1.0000100000e+04 1.0000000000e+04 0.0000e+00 -1.0000e+00
      -24  1    1    2    0    0 -9.5601357220e+03 -1.9281882718e+03 +1.4685526026e+03 9.8629166301e+03 7.9829010000e+01 0.0000e+00 -1.0000e+00
       24  1    1    2    0    0 +6.0082493574e+03 +1.9385044333e+03 -8.3769512350e+02 6.3690631626e+03 7.9829010000e+01 0.0000e+00 -1.0000e+00
       22  1    1    2    0    0 +3.1720013006e+03 -3.1251738115e+02 -3.4775883209e+02 3.2062744066e+03 0.0000000000e+00 0.0000e+00 -1.0000e+00
       22  1    1    2    0    0 +3.7988506399e+02 +3.0220121966e+02 -2.8309864705e+02 5.6194580074e+02 0.0000000000e+00 0.0000e+00 -1.0000e+00
</event>
<event>
 6      1 +1.4834189e-01 1.04738700e+04 7.81653100e-03 6.91088300e-02
  1000022 -1    0    0    0    0 +0.0000000000e+00 +0.0000000000e+00 +4.4721471353e+01 1.0000100000e+04 1.0000000000e+04 0.0000e+00 1.0000e+00
  1000022 -1    0    0    0    0 -0.0000000000e+00 -0.0000000000e+00 -4.4721471353e+01 1.0000100000e+04 1.0000000000e+04 0.0000e+00 1.0000e+00
      -24  1    1    2    0    0 +7.1372205313e+03 +5.4313612235e+03 +3.1175167640e+03 9.4955192116e+03 7.9829010000e+01 0.0000e+00 -1.0000e+00
       24  1    1    2    0    0 -6.2261901597e+03 -5.1011420484e+03 -4.1334998763e+03 9.0487174782e+03 7.9829010000e+01 0.0000e+00 -1.0000e+00
       22  1    1    2    0    0 -9.3136447979e+02 -3.5313543974e+02 +1.0192691153e+03 1.4251505052e+03 0.0000000000e+00 0.0000e+00 -1.0000e+00
       22  1    1    2    0    0 +2.0334108151e+01 +2.2916264658e+01 -3.2860030146e+00 3.0812805065e+01 0.0000000000e+00 0.0000e+00 -1.0000e+00
</event>
<event>
 6      1 +1.4834189e-01 1.00080500e+04 7.81653100e-03 6.93824000e-02
  1000022 -1    0    0    0    0 +0.0000000000e+00 +0.0000000000e+00 +4.4721471353e+01 1.0000100000e+04 1.0000000000e+04 0.0000e+00 -1.0000e+00
  1000022 -1    0    0    0    0 -0.0000000000e+00 -0.0000000000e+00 -4.4721471353e+01 1.0000100000e+04 1.0000000000e+04 0.0000e+00 -1.0000e+00
      -24  1    1    2    0    0 -6.5317873333e+02 -8.8472056532e+03 -4.3611475945e+03 9.8856295368e+03 7.9829010000e+01 0.0000e+00 1.0000e+00
       24  1    1    2    0    0 +6.8616153794e+02 +8.9190715935e+03 +4.3440488597e+03 9.9447367443e+03 7.9829010000e+01 0.0000e+00 1.0000e+00
       22  1    1    2    0    0 -6.5152000326e+01 -1.0360537446e+02 +2.7493389044e+00 1.2241901661e+02 0.0000000000e+00 0.0000e+00 1.0000e+00
       22  1    1    2    0    0 +3.2169195713e+01 +3.1739434095e+01 +1.4349395850e+01 4.7414702263e+01 0.0000000000e+00 0.0000e+00 -1.0000e+00
</event>
<event>
 6      1 +1.4834189e-01 1.00004500e+04 7.81653100e-03 6.93869800e-02
  1000022 -1    0    0    0    0 +0.0000000000e+00 +0.0000000000e+00 +4.4721471353e+01 1.0000100000e+04 1.0000000000e+04 0.0000e+00 1.0000e+00
  1000022 -1    0    0    0    0 -0.0000000000e+00 -0.0000000000e+00 -4.4721471353e+01 1.0000100000e+04 1.0000000000e+04 0.0000e+00 1.0000e+00
      -24  1    1    2    0    0 -5.2011120330e+03 -7.7610946235e+03 -3.4160506136e+03 9.9479611278e+03 7.9829010000e+01 0.0000e+00 -1.0000e+00
       24  1    1    2    0    0 +5.2169517259e+03 +7.7826721661e+03 +3.4325363949e+03 9.9787399069e+03 7.9829010000e+01 0.0000e+00 -1.0000e+00
       22  1    1    2    0    0 -2.8326234001e+01 -3.9236276225e+01 -1.8432015186e+01 5.1784168319e+01 0.0000000000e+00 0.0000e+00 1.0000e+00
       22  1    1    2    0    0 +1.2486541062e+01 +1.7658733621e+01 +1.9462338543e+00 2.1714796960e+01 0.0000000000e+00 0.0000e+00 -1.0000e+00
</event>
<event>
 6      1 +1.4834189e-01 1.00068600e+04 7.81653100e-03 6.93831200e-02
  1000022 -1    0    0    0    0 +0.0000000000e+00 +0.0000000000e+00 +4.4721471353e+01 1.0000100000e+04 1.0000000000e+04 0.0000e+00 -1.0000e+00
  1000022 -1    0    0    0    0 -0.0000000000e+00 -0.0000000000e+00 -4.4721471353e+01 1.0000100000e+04 1.0000000000e+04 0.0000e+00 -1.0000e+00
      -24  1    1    2    0    0 -5.3854697570e+03 -7.4200388620e+03 -3.9576018186e+03 9.9864531263e+03 7.9829010000e+01 0.0000e+00 -1.0000e+00
       24  1    1    2    0    0 +5.3639295037e+03 +7.3691960947e+03 +3.9538654099e+03 9.9356034116e+03 7.9829010000e+01 0.0000e+00 -1.0000e+00
       22  1    1    2    0    0 +2.9834206954e+01 +4.4608708804e+01 +2.1304768736e+01 5.7740020580e+01 0.0000000000e+00 0.0000e+00 -1.0000e+00
       22  1    1    2    0    0 -8.2939536037e+00 +6.2340585407e+00 -1.7568360032e+01 2.0403441536e+01 0.0000000000e+00 0.0000e+00 -1.0000e+00
</event>
<event>
 6      1 +1.4834189e-01 1.00080100e+04 7.81653100e-03 6.93824200e-02
  1000022 -1    0    0    0    0 +0.0000000000e+00 +0.0000000000e+00 +4.4721471353e+01 1.0000100000e+04 1.0000000000e+04 0.0000e+00 1.0000e+00
  1000022 -1    0    0    0    0 -0.0000000000e+00 -0.0000000000e+00 -4.4721471353e+01 1.0000100000e+04 1.0000000000e+04 0.0000e+00 1.0000e+00
      -24  1    1    2    0    0 -1.5180943655e+03 -9.7237671406e+03 -1.6828613420e+03 9.9847209713e+03 7.9829010000e+01 0.0000e+00 -1.0000e+00
       24  1    1    2    0    0 +1.4718788946e+03 +9.6686890658e+03 +1.6788344247e+03 9.9234486660e+03 7.9829010000e+01 0.0000e+00 -1.0000e+00
       22  1    1    2    0    0 +2.1347948348e+01 -8.5413292879e+00 -3.6957740489e+00 2.3288365131e+01 0.0000000000e+00 0.0000e+00 1.0000e+00
       22  1    1    2    0    0 +2.4867522516e+01 +6.3619404178e+01 +7.7226913344e+00 6.8741997538e+01 0.0000000000e+00 0.0000e+00 -1.0000e+00
</event>
<event>
 6      1 +1.4834189e-01 1.06729800e+04 7.81653100e-03 6.89962300e-02
  1000022 -1    0    0    0    0 +0.0000000000e+00 +0.0000000000e+00 +4.4721471353e+01 1.0000100000e+04 1.0000000000e+04 0.0000e+00 -1.0000e+00
  1000022 -1    0    0    0    0 -0.0000000000e+00 -0.0000000000e+00 -4.4721471353e+01 1.0000100000e+04 1.0000000000e+04 0.0000e+00 -1.0000e+00
      -24  1    1    2    0    0 +1.7644029304e+03 +8.7224392510e+03 +4.1545195185e+02 8.9091546840e+03 7.9829010000e+01 0.0000e+00 -1.0000e+00
       24  1    1    2    0    0 -4.3973244625e+01 -2.6720763852e+03 +1.0752609733e+03 2.8817502817e+03 7.9829010000e+01 0.0000e+00 -1.0000e+00
       22  1    1    2    0    0 -1.3199433890e+03 +3.7135037707e+02 -1.1094645000e+03 1.7638206058e+03 0.0000000000e+00 0.0000e+00 1.0000e+00
       22  1    1    2    0    0 -4.0048629678e+02 -6.4217132428e+03 -3.8124842513e+02 6.4454744285e+03 0.0000000000e+00 0.0000e+00 -1.0000e+00
</event>
<event>
 6      1 +1.4834189e-01 1.07027700e+04 7.81653100e-03 6.89795900e-02
  1000022 -1    0    0    0    0 +0.0000000000e+00 +0.0000000000e+00 +4.4721471353e+01 1.0000100000e+04 1.0000000000e+04 0.0000e+00 1.0000e+00
  1000022 -1    0    0    0    0 -0.0000000000e+00 -0.0000000000e+00 -4.4721471353e+01 1.0000100000e+04 1.0000000000e+04 0.0000e+00 1.0000e+00
      -24  1    1    2    0    0 +3.6456566685e+03 -7.5698583311e+03 -3.9802225463e+03 9.2974250137e+03 7.9829010000e+01 0.0000e+00 -1.0000e+00
       24  1    1    2    0    0 -1.2782075937e+03 +6.8557740414e+03 +2.8723074545e+03 7.5426769216e+03 7.9829010000e+01 0.0000e+00 -1.0000e+00
       22  1    1    2    0    0 +6.2308323631e+01 +8.4788917625e+01 +5.8742122451e+02 5.9677062826e+02 0.0000000000e+00 0.0000e+00 -1.0000e+00
       22  1    1    2    0    0 -2.4297573984e+03 +6.2929537210e+02 +5.2049386729e+02 2.5633274364e+03 0.0000000000e+00 0.0000e+00 -1.0000e+00
</event>
<event>
 6      1 +1.4834189e-01 1.04066400e+04 7.81653100e-03 6.91474200e-02
  1000022 -1    0    0    0    0 +0.0000000000e+00 +0.0000000000e+00 +4.4721471353e+01 1.0000100000e+04 1.0000000000e+04 0.0000e+00 1.0000e+00
  1000022 -1    0    0    0    0 -0.0000000000e+00 -0.0000000000e+00 -4.4721471353e+01 1.0000100000e+04 1.0000000000e+04 0.0000e+00 1.0000e+00
      -24  1    1    2    0    0 -2.8741346827e+03 -1.0084497184e+03 +9.0968381545e+03 9.5935633677e+03 7.9829010000e+01 0.0000e+00 1.0000e+00
       24  1    1    2    0    0 +4.3389111426e+02 +8.1220395192e+02 -1.4437442398e+03 1.7142656910e+03 7.9829010000e+01 0.0000e+00 -1.0000e+00
       22  1    1    2    0    0 +1.1788080878e+03 -1.5180469568e+03 -2.8348459418e+03 3.4249681144e+03 0.0000000000e+00 0.0000e+00 -1.0000e+00
       22  1    1    2    0    0 +1.2614354806e+03 +1.7142927232e+03 -4.8182479729e+03 5.2674028269e+03 0.0000000000e+00 0.0000e+00 1.0000e+00
</event>
<event>
 6      1 +1.4834189e-01 1.01287700e+04 7.81653100e-03 6.93100800e-02
  1000022 -1    0    0    0    0 +0.0000000000e+00 +0.0000000000e+00 +4.4721471353e+01 1.0000100000e+04 1.0000000000e+04 0.0000e+00 1.0000e+00
  1000022 -1    0    0    0    0 -0.0000000000e+00 -0.0000000000e+00 -4.4721471353e+01 1.0000100000e+04 1.0000000000e+04 0.0000e+00 1.0000e+00
      -24  1    1    2    0    0 +7.9409623611e+03 +1.5879281754e+03 +4.5831962101e+03 9.3055069331e+03 7.9829010000e+01 0.0000e+00 1.0000e+00
       24  1    1    2    0    0 -8.0906967812e+03 -2.1221479223e+03 -5.1439349739e+03 9.8198434762e+03 7.9829010000e+01 0.0000e+00 1.0000e+00
       22  1    1    2    0    0 +1.5905605894e+02 +5.2820777605e+02 +6.1111645394e+02 8.2326520930e+02 0.0000000000e+00 0.0000e+00 1.0000e+00
       22  1    1    2    0    0 -9.3216387619e+00 +6.0119708644e+00 -5.0377690177e+01 5.1584381458e+01 0.0000000000e+00 0.0000e+00 1.0000e+00
</event>
<event>
 6      1 +1.4834189e-01 1.00087400e+04 7.81653100e-03 6.93819800e-02
  1000022 -1    0    0    0    0 +0.0000000000e+00 +0.0000000000e+00 +4.4721471353e+01 1.0000100000e+04 1.0000000000e+04 0.0000e+00 1.0000e+00
  1000022 -1    0    0    0    0 -0.0000000000e+00 -0.0000000000e+00 -4.4721471353e+01 1.0000100000e+04 1.0000000000e+04 0.0000e+00 1.0000e+00
      -24  1    1    2    0    0 +7.9590092611e+02 -1.8076419499e+03 -9.5201381343e+03 9.7231903443e+03 7.9829010000e+01 0.0000e+00 1.0000e+00
       24  1    1    2    0    0 -1.1409882215e+03 +1.5558810044e+03 +8.1416702374e+03 8.3675436507e+03 7.9829010000e+01 0.0000e+00 1.0000e+00
       22  1    1    2    0    0 +1.1670643204e+02 +5.6117366539e+01 -2.3494327441e+02 2.6826832145e+02 0.0000000000e+00 0.0000e+00 -1.0000e+00
       22  1    1    2    0    0 +2.2838086338e+02 +1.9564357890e+02 +1.6134111713e+03 1.6411976835e+03 0.0000000000e+00 0.0000e+00 -1.0000e+00
</event>
<event>
 6      1 +1.4834189e-01 1.00001300e+04 7.81653100e-03 6.93871800e-02
  1000022 -1    0    0    0    0 +0.0000000000e+00 +0.0000000000e+00 +4.4721471353e+01 1.0000100000e+04 1.0000000000e+04 0.0000e+00 1.0000e+00
  1000022 -1    0    0    0    0 -0.0000000000e+00 -0.0000000000e+00 -4.4721471353e+01 1.0000100000e+04 1.0000000000e+04 0.0000e+00 1.0000e+00
      -24  1    1    2    0    0 +2.4497104889e+03 +4.5464325229e+03 +8.2472800409e+03 9.7311423229e+03 7.9829010000e+01 0.0000e+00 1.0000e+00
       24  1    1    2    0    0 -2.3337121902e+03 -4.3016315904e+03 -7.7846113568e+03 9.1954767997e+03 7.9829010000e+01 0.0000e+00 1.0000e+00
       22  1    1    2    0    0 +7.3008388712e+01 +1.3305664309e+02 +2.2207674741e+02 2.6898397133e+02 0.0000000000e+00 0.0000e+00 1.0000e+00
       22  1    1    2    0    0 -1.8900668738e+02 -3.7785757556e+02 -6.8474543156e+02 8.0459690611e+02 0.0000000000e+00 0.0000e+00 1.0000e+00
</event>
<event>
 6      1 +1.4834189e-01 1.02656700e+04 7.81653100e-03 6.92292900e-02
  1000022 -1    0    0    0    0 +0.0000000000e+00 +0.0000000000e+00 +4.4721471353e+01 1.0000100000e+04 1.0000000000e+04 0.0000e+00 -1.0000e+00
  1000022 -1    0    0    0    0 -0.0000000000e+00 -0.0000000000e+00 -4.4721471353e+01 1.0000100000e+04 1.0000000000e+04 0.0000e+00 -1.0000e+00
      -24  1    1    2    0    0 +1.1597413921e+03 -1.9637596605e+02 +9.9597402517e+02 1.5433407097e+03 7.9829010000e+01 0.0000e+00 0.0000e+00
       24  1    1    2    0    0 -6.8289691687e+03 +1.4048939543e+03 -6.5328093597e+03 9.5547118079e+03 7.9829010000e+01 0.0000e+00 1.0000e+00
       22  1    1    2    0    0 +6.1834978791e+03 -7.6972854449e+02 +5.3167114539e+03 8.1911872606e+03 0.0000000000e+00 0.0000e+00 1.0000e+00
       22  1    1    2    0    0 -5.1427010246e+02 -4.3878944378e+02 +2.2012388066e+02 7.1096022188e+02 0.0000000000e+00 0.0000e+00 -1.0000e+00
</event>
<event>
 6      1 +1.4834189e-01 9.95827200e+03 7.81653100e-03 6.94125100e-02
  1000022 -1    0    0    0    0 +0.0000000000e+00 +0.0000000000e+00 +4.4721471353e+01 1.0000100000e+04 1.0000000000e+04 0.0000e+00 -1.0000e+00
  1000022 -1    0    0    0    0 -0.0000000000e+00 -0.0000000000e+00 -4.4721471353e+01 1.0000100000e+04 1.0000000000e+04 0.0000e+00 -1.0000e+00
      -24  1    1    2    0    0 -9.4357361845e+03 -1.8003063439e+03 +2.2312783034e+03 9.8620076968e+03 7.9829010000e+01 0.0000e+00 -1.0000e+00
       24  1    1    2    0    0 +1.4613581015e+01 +5.5308667907e+01 +8.5066277414e-01 9.8214051746e+01 7.9829010000e+01 0.0000e+00 -1.0000e+00
       22  1    1    2    0    0 +9.5081734246e+03 +1.8092250582e+03 -2.2270023729e+03 9.9316764322e+03 0.0000000000e+00 0.0000e+00 -1.0000e+00
       22  1    1    2    0    0 -8.7050821185e+01 -6.4227382223e+01 -5.1265932403e+00 1.0830181926e+02 0.0000000000e+00 0.0000e+00 1.0000e+00
</event>
<event>
 6      1 +1.4834189e-01 1.00035600e+04 7.81653100e-03 6.93851000e-02
  1000022 -1    0    0    0    0 +0.0000000000e+00 +0.0000000000e+00 +4.4721471353e+01 1.0000100000e+04 1.0000000000e+04 0.0000e+00 1.0000e+00
  1000022 -1    0    0    0    0 -0.0000000000e+00 -0.0000000000e+00 -4.4721471353e+01 1.0000100000e+04 1.0000000000e+04 0.0000e+00 1.0000e+00
      -24  1    1    2    0    0 +4.1179265664e+03 +8.1233494288e+03 +3.9775105569e+03 9.9384650752e+03 7.9829010000e+01 0.0000e+00 1.0000e+00
       24  1    1    2    0    0 -4.1379235770e+03 -8.1798664592e+03 -3.9866979452e+03 9.9966374345e+03 7.9829010000e+01 0.0000e+00 1.0000e+00
       22  1    1    2    0    0 +2.4200523637e+01 +3.7005575643e+01 +9.0755956311e+00 4.5138059429e+01 0.0000000000e+00 0.0000e+00 1.0000e+00
       22  1    1    2    0    0 -4.2035130389e+00 +1.9511454702e+01 +1.1179263742e-01 1.9959430955e+01 0.0000000000e+00 0.0000e+00 -1.0000e+00
</event>
<event>
 6      1 +1.4834189e-01 1.03761000e+04 7.81653100e-03 6.91650500e-02
  1000022 -1    0    0    0    0 +0.0000000000e+00 +0.0000000000e+00 +4.4721471353e+01 1.0000100000e+04 1.0000000000e+04 0.0000e+00 -1.0000e+00
  1000022 -1    0    0    0    0 -0.0000000000e+00 -0.0000000000e+00 -4.4721471353e+01 1.0000100000e+04 1.0000000000e+04 0.0000e+00 -1.0000e+00
      -24  1    1    2    0    0 +2.8210989384e+03 -7.0498042770e+03 +5.0898871143e+03 9.1417538291e+03 7.9829010000e+01 0.0000e+00 1.0000e+00
       24  1    1    2    0    0 -3.7750559632e+03 +4.7369013140e+03 -4.2683324051e+03 7.4104194062e+03 7.9829010000e+01 0.0000e+00 1.0000e+00
       22  1    1    2    0    0 +8.1826848885e+02 +2.5888089653e+03 -1.1932076060e+03 2.9656769160e+03 0.0000000000e+00 0.0000e+00 -1.0000e+00
       22  1    1    2    0    0 +1.3568853591e+02 -2.7590600234e+02 +3.7165289684e+02 4.8234984880e+02 0.0000000000e+00 0.0000e+00 -1.0000e+00
</event>
<event>
 6      1 +1.4834189e-01 1.04869900e+04 7.81653100e-03 6.91013300e-02
  1000022 -1    0    0    0    0 +0.0000000000e+00 +0.0000000000e+00 +4.4721471353e+01 1.0000100000e+04 1.0000000000e+04 0.0000e+00 -1.0000e+00
  1000022 -1    0    0    0    0 -0.0000000000e+00 -0.0000000000e+00 -4.4721471353e+01 1.0000100000e+04 1.0000000000e+04 0.0000e+00 -1.0000e+00
      -24  1    1    2    0    0 -5.8767894289e+02 +9.4611109900e+03 +7.9805350912e+02 9.5132144820e+03 7.9829010000e+01 0.0000e+00 1.0000e+00
       24  1    1    2    0    0 +2.2158911056e+03 -7.3785871727e+03 +1.1754133164e+01 7.7045592273e+03 7.9829010000e+01 0.0000e+00 1.0000e+00
       22  1    1    2    0    0 -1.6392035621e+03 -2.0406534853e+03 -7.8566489194e+02 2.7328600929e+03 0.0000000000e+00 0.0000e+00 1.0000e+00
       22  1    1    2    0    0 +1.0991399406e+01 -4.1870332037e+01 -2.4142750340e+01 4.9566197754e+01 0.0000000000e+00 0.0000e+00 -1.0000e+00
</event>
<event>
 6      1 +1.4834189e-01 1.00080300e+04 7.81653100e-03 6.93824100e-02
  1000022 -1    0    0    0    0 +0.0000000000e+00 +0.0000000000e+00 +4.4721471353e+01 1.0000100000e+04 1.0000000000e+04 0.0000e+00 1.0000e+00
  1000022 -1    0    0    0    0 -0.0000000000e+00 -0.0000000000e+00 -4.4721471353e+01 1.0000100000e+04 1.0000000000e+04 0.0000e+00 1.0000e+00
      -24  1    1    2    0    0 -1.6811078034e+03 -3.0849608905e+03 +9.3377512375e+03 9.9771277424e+03 7.9829010000e+01 0.0000e+00 -1.0000e+00
       24  1    1    2    0    0 +1.6164853165e+03 +2.8922667166e+03 -8.1680057383e+03 8.8148126441e+03 7.9829010000e+01 0.0000e+00 -1.0000e+00
       22  1    1    2    0    0 +8.4429998915e+00 -1.1604992102e+01 +4.5083562563e+00 1.5042784483e+01 0.0000000000e+00 0.0000e+00 1.0000e+00
       22  1    1    2    0    0 +5.6179487003e+01 +2.0429916595e+02 -1.1742538555e+03 1.1932168290e+03 0.0000000000e+00 0.0000e+00 1.0000e+00
</event>
<event>
 6      1 +1.4834189e-01 1.00011600e+04 7.81653100e-03 6.93865500e-02
  1000022 -1    0    0    0    0 +0.0000000000e+00 +0.0000000000e+00 +4.4721471353e+01 1.0000100000e+04 1.0000000000e+04 0.0000e+00 1.0000e+00
  1000022 -1    0    0    0    0 -0.0000000000e+00 -0.0000000000e+00 -4.4721471353e+01 1.0000100000e+04 1.0000000000e+04 0.0000e+00 1.0000e+00
      -24  1    1    2    0    0 -4.1414884809e+03 -4.5407775498e+03 -7.8445997137e+03 9.9656763410e+03 7.9829010000e+01 0.0000e+00 1.0000e+00
       24  1    1    2    0    0 +4.1489236085e+03 +4.5581810415e+03 +7.8501536239e+03 9.9810753983e+03 7.9829010000e+01 0.0000e+00 1.0000e+00
       22  1    1    2    0    0 +7.0841768247e+00 +8.1312068418e+00 +1.4361246819e+01 1.7959607350e+01 0.0000000000e+00 0.0000e+00 -1.0000e+00
       22  1    1    2    0    0 -1.4519304484e+01 -2.5534698567e+01 -1.9915157055e+01 3.5488653316e+01 0.0000000000e+00 0.0000e+00 -1.0000e+00
</event>
<event>
 6      1 +1.4834189e-01 1.00152200e+04 7.81653100e-03 6.93780700e-02
  1000022 -1    0    0    0    0 +0.0000000000e+00 +0.0000000000e+00 +4.4721471353e+01 1.0000100000e+04 1.0000000000e+04 0.0000e+00 1.0000e+00
  1000022 -1    0    0    0    0 -0.0000000000e+00 -0.0000000000e+00 -4.4721471353e+01 1.0000100000e+04 1.0000000000e+04 0.0000e+00 1.0000e+00
      -24  1    1    2    0    0 +1.1425723419e+02 +3.0852579227e+03 -4.8901708230e+03 5.7837716513e+03 7.9829010000e+01 0.0000e+00 1.0000e+00
       24  1    1    2    0    0 +4.2016870420e+02 -5.2212155649e+03 +8.5003414240e+03 9.9849792544e+03 7.9829010000e+01 0.0000e+00 1.0000e+00
       22  1    1    2    0    0 -7.6594386211e+00 +6.6190545672e+00 -4.7419340063e+00 1.1178766545e+01 0.0000000000e+00 0.0000e+00 -1.0000e+00
       22  1    1    2    0    0 -5.2676649977e+02 +2.1293385877e+03 -3.6054286670e+03 4.2202703277e+03 0.0000000000e+00 0.0000e+00 1.0000e+00
</event>
<event>
 6      1 +1.4834189e-01 1.02786500e+04 7.81653100e-03 6.92217000e-02
  1000022 -1    0    0    0    0 +0.0000000000e+00 +0.0000000000e+00 +4.4721471353e+01 1.0000100000e+04 1.0000000000e+04 0.0000e+00 1.0000e+00
  1000022 -1    0    0    0    0 -0.0000000000e+00 -0.0000000000e+00 -4.4721471353e+01 1.0000100000e+04 1.0000000000e+04 0.0000e+00 1.0000e+00
      -24  1    1    2    0    0 -2.0487639587e+03 -2.4226286846e+03 +1.7958985078e+03 3.6466680166e+03 7.9829010000e+01 0.0000e+00 0.0000e+00
       24  1    1    2    0    0 +4.7168318778e+03 +6.7610707000e+03 -4.7737665596e+03 9.5265838479e+03 7.9829010000e+01 0.0000e+00 -1.0000e+00
       22  1    1    2    0    0 +7.0311054139e+02 -8.1619843251e+01 +2.5411195980e+02 7.5206324225e+02 0.0000000000e+00 0.0000e+00 -1.0000e+00
       22  1    1    2    0    0 -3.3711784605e+03 -4.2568221722e+03 +2.7237560919e+03 6.0748848933e+03 0.0000000000e+00 0.0000e+00 -1.0000e+00
</event>
<event>
 6      1 +1.4834189e-01 1.00164200e+04 7.81653100e-03 6.93773500e-02
  1000022 -1    0    0    0    0 +0.0000000000e+00 +0.0000000000e+00 +4.4721471353e+01 1.0000100000e+04 1.0000000000e+04 0.0000e+00 -1.0000e+00
  1000022 -1    0    0    0    0 -0.0000000000e+00 -0.0000000000e+00 -4.4721471353e+01 1.0000100000e+04 1.0000000000e+04 0.0000e+00 -1.0000e+00
      -24  1    1    2    0    0 -2.3973353573e+03 -1.3959657703e+03 +2.3089756486e+02 2.7848920273e+03 7.9829010000e+01 0.0000e+00 1.0000e+00
       24  1    1    2    0    0 +8.1652099390e+03 +4.9993590751e+03 -7.1229785831e+02 9.6009366949e+03 7.9829010000e+01 0.0000e+00 1.0000e+00
       22  1    1    2    0    0 -6.0035353647e+03 -3.9452139780e+03 +4.6571204234e+02 7.1988914365e+03 0.0000000000e+00 0.0000e+00 1.0000e+00
       22  1    1    2    0    0 +2.3566078305e+02 +3.4182067330e+02 +1.5688251109e+01 4.1547984137e+02 0.0000000000e+00 0.0000e+00 -1.0000e+00
</event>
<event>
 6      1 +1.4834189e-01 9.12037800e+03 7.81653100e-03 6.99477800e-02
  1000022 -1    0    0    0    0 +0.0000000000e+00 +0.0000000000e+00 +4.4721471353e+01 1.0000100000e+04 1.0000000000e+04 0.0000e+00 1.0000e+00
  1000022 -1    0    0    0    0 -0.0000000000e+00 -0.0000000000e+00 -4.4721471353e+01 1.0000100000e+04 1.0000000000e+04 0.0000e+00 1.0000e+00
      -24  1    1    2    0    0 -9.2007058165e+02 +7.9951764925e+02 +1.1581005904e+03 1.6832492373e+03 7.9829010000e+01 0.0000e+00 -1.0000e+00
       24  1    1    2    0    0 +3.4039828638e+03 -8.6938010198e+03 +1.7495940368e+03 9.4993014202e+03 7.9829010000e+01 0.0000e+00 -1.0000e+00
       22  1    1    2    0    0 -2.4927063712e+03 +7.9132643049e+03 -2.9174170439e+03 8.7945812419e+03 0.0000000000e+00 0.0000e+00 -1.0000e+00
       22  1    1    2    0    0 +8.7940890122e+00 -1.8980934418e+01 +9.7224167591e+00 2.3068100497e+01 0.0000000000e+00 0.0000e+00 1.0000e+00
</event>
<event>
 6      1 +1.4834189e-01 1.07369700e+04 7.81653100e-03 6.89605600e-02
  1000022 -1    0    0    0    0 +0.0000000000e+00 +0.0000000000e+00 +4.4721471353e+01 1.0000100000e+04 1.0000000000e+04 0.0000e+00 -1.0000e+00
  1000022 -1    0    0    0    0 -0.0000000000e+00 -0.0000000000e+00 -4.4721471353e+01 1.0000100000e+04 1.0000000000e+04 0.0000e+00 -1.0000e+00
      -24  1    1    2    0    0 +7.1385303873e+03 -5.8887791985e+03 -4.0577252355e+02 9.2632262496e+03 7.9829010000e+01 0.0000e+00 -1.0000e+00
       24  1    1    2    0    0 -9.1493484316e+02 +3.4843369616e+02 +3.4842493880e+02 1.0422496902e+03 7.9829010000e+01 0.0000e+00 -1.0000e+00
       22  1    1    2    0    0 -2.6441253294e+03 +3.5222108955e+03 +2.3471214825e+03 4.9906259732e+03 0.0000000000e+00 0.0000e+00 1.0000e+00
       22  1    1    2    0    0 -3.5794702148e+03 +2.0181346068e+03 -2.2897738978e+03 4.7040980871e+03 0.0000000000e+00 0.0000e+00 -1.0000e+00
</event>
<event>
 6      1 +1.4834189e-01 1.00259100e+04 7.81653100e-03 6.93716300e-02
  1000022 -1    0    0    0    0 +0.0000000000e+00 +0.0000000000e+00 +4.4721471353e+01 1.0000100000e+04 1.0000000000e+04 0.0000e+00 1.0000e+00
  1000022 -1    0    0    0    0 -0.0000000000e+00 -0.0000000000e+00 -4.4721471353e+01 1.0000100000e+04 1.0000000000e+04 0.0000e+00 1.0000e+00
      -24  1    1    2    0    0 -3.1461957649e+03 -1.3000199837e+02 +7.8619198339e+03 8.4694512488e+03 7.9829010000e+01 0.0000e+00 1.0000e+00
       24  1    1    2    0    0 +2.1840931077e+03 +3.6704590095e+02 -5.8233212792e+03 6.2307647033e+03 7.9829010000e+01 0.0000e+00 1.0000e+00
       22  1    1    2    0    0 +1.2137702303e+03 +8.5906261674e+01 -3.5402450756e+03 3.7435215043e+03 0.0000000000e+00 0.0000e+00 1.0000e+00
       22  1    1    2    0    0 -2.5166757313e+02 -3.2295016425e+02 +1.5016465208e+03 1.5564625436e+03 0.0000000000e+00 0.0000e+00 1.0000e+00
</event>
<event>
 6      1 +1.4834189e-01 1.00001200e+04 7.81653100e-03 6.93871800e-02
  1000022 -1    0    0    0    0 +0.0000000000e+00 +0.0000000000e+00 +4.4721471353e+01 1.0000100000e+04 1.0000000000e+04 0.0000e+00 1.0000e+00
  1000022 -1    0    0    0    0 -0.0000000000e+00 -0.0000000000e+00 -4.4721471353e+01 1.0000100000e+04 1.0000000000e+04 0.0000e+00 1.0000e+00
      -24  1    1    2    0    0 -7.0596486027e+03 +3.2268822084e+03 +6.2124115749e+03 9.9424261339e+03 7.9829010000e+01 0.0000e+00 1.0000e+00
       24  1    1    2    0    0 +3.0328087355e+03 -1.4435031998e+03 -2.7851930027e+03 4.3640924655e+03 7.9829010000e+01 0.0000e+00 1.0000e+00
       22  1    1    2    0    0 +4.0562022431e+03 -1.8070550925e+03 -3.4708204865e+03 5.6360287077e+03 0.0000000000e+00 0.0000e+00 1.0000e+00
       22  1    1    2    0    0 -2.9362375947e+01 +2.3676083874e+01 +4.3601914305e+01 5.7652692912e+01 0.0000000000e+00 0.0000e+00 1.0000e+00
</event>
<event>
 6      1 +1.4834189e-01 1.00032800e+04 7.81653100e-03 6.93852800e-02
  1000022 -1    0    0    0    0 +0.0000000000e+00 +0.0000000000e+00 +4.4721471353e+01 1.0000100000e+04 1.0000000000e+04 0.0000e+00 1.0000e+00
  1000022 -1    0    0    0    0 -0.0000000000e+00 -0.0000000000e+00 -4.4721471353e+01 1.0000100000e+04 1.0000000000e+04 0.0000e+00 1.0000e+00
      -24  1    1    2    0    0 +8.2690593733e+03 +4.0667839084e+03 +3.2891523321e+03 9.7847314737e+03 7.9829010000e+01 0.0000e+00 1.0000e+00
       24  1    1    2    0    0 -4.1984398604e+01 -1.2052154455e+01 -1.2296165629e+02 1.5297118653e+02 7.9829010000e+01 0.0000e+00 -1.0000e+00
       22  1    1    2    0    0 -8.3628245957e+03 -4.0069103883e+03 -3.3221063789e+03 9.8503074506e+03 0.0000000000e+00 0.0000e+00 1.0000e+00
       22  1    1    2    0    0 +1.3574962100e+02 -4.7821365653e+01 +1.5591570310e+02 2.1218988922e+02 0.0000000000e+00 0.0000e+00 1.0000e+00
</event>
<event>
 6      1 +1.4834189e-01 1.01353600e+04 7.81653100e-03 6.93061600e-02
  1000022 -1    0    0    0    0 +0.0000000000e+00 +0.0000000000e+00 +4.4721471353e+01 1.0000100000e+04 1.0000000000e+04 0.0000e+00 1.0000e+00
  1000022 -1    0    0    0    0 -0.0000000000e+00 -0.0000000000e+00 -4.4721471353e+01 1.0000100000e+04 1.0000000000e+04 0.0000e+00 1.0000e+00
      -24  1    1    2    0    0 +8.1778082817e+03 -4.9818950389e+03 -1.0301054652e+03 9.6313714710e+03 7.9829010000e+01 0.0000e+00 -1.0000e+00
       24  1    1    2    0    0 -8.5383597759e+03 +4.7867029635e+03 +7.8746809760e+02 9.8205189068e+03 7.9829010000e+01 0.0000e+00 -1.0000e+00
       22  1    1    2    0    0 +3.8180167315e+02 +1.7726347160e+02 +2.7715007733e+02 5.0399109253e+02 0.0000000000e+00 0.0000e+00 -1.0000e+00
       22  1    1    2    0    0 -2.1250179005e+01 +1.7928603793e+01 -3.4512709707e+01 4.4318529680e+01 0.0000000000e+00 0.0000e+00 -1.0000e+00
</event>
<event>
 6      1 +1.4834189e-01 1.00214400e+04 7.81653100e-03 6.93743200e-02
  1000022 -1    0    0    0    0 +0.0000000000e+00 +0.0000000000e+00 +4.4721471353e+01 1.0000100000e+04 1.0000000000e+04 0.0000e+00 -1.0000e+00
  1000022 -1    0    0    0    0 -0.0000000000e+00 -0.0000000000e+00 -4.4721471353e+01 1.0000100000e+04 1.0000000000e+04 0.0000e+00 -1.0000e+00
      -24  1    1    2    0    0 +1.6137231357e+03 -7.9168541421e+02 -9.4377452031e+03 9.6077195704e+03 7.9829010000e+01 0.0000e+00 1.0000e+00
       24  1    1    2    0    0 -7.6155546505e+00 +7.8490042950e-01 +1.3159092077e+03 1.3183506083e+03 7.9829010000e+01 0.0000e+00 -1.0000e+00
       22  1    1    2    0    0 -1.5347371465e+02 -1.0951891098e+02 -3.6826225171e+02 4.1372171684e+02 0.0000000000e+00 0.0000e+00 1.0000e+00
       22  1    1    2    0    0 -1.4526338664e+03 +9.0041942476e+02 +8.4900982471e+03 8.6604081045e+03 0.0000000000e+00 0.0000e+00 1.0000e+00
</event>
<event>
 6      1 +1.4834189e-01 1.00015500e+04 7.81653100e-03 6.93863200e-02
  1000022 -1    0    0    0    0 +0.0000000000e+00 +0.0000000000e+00 +4.4721471353e+01 1.0000100000e+04 1.0000000000e+04 0.0000e+00 1.0000e+00
  1000022 -1    0    0    0    0 -0.0000000000e+00 -0.0000000000e+00 -4.4721471353e+01 1.0000100000e+04 1.0000000000e+04 0.0000e+00 1.0000e+00
      -24  1    1    2    0    0 +1.5177000153e+03 +4.5459362125e+03 +8.7376904700e+03 9.9660702790e+03 7.9829010000e+01 0.0000e+00 -1.0000e+00
       24  1    1    2    0    0 -1.4877336796e+03 -4.4785493490e+03 -8.5686176514e+03 9.7825526781e+03 7.9829010000e+01 0.0000e+00 -1.0000e+00
       22  1    1    2    0    0 +1.9638363460e+01 +1.8861367045e+01 +2.2752496838e+01 3.5483694826e+01 0.0000000000e+00 0.0000e+00 1.0000e+00
       22  1    1    2    0    0 -4.9604699119e+01 -8.6248230482e+01 -1.9182531552e+02 2.1609334814e+02 0.0000000000e+00 0.0000e+00 -1.0000e+00
</event>
<event>
 6      1 +1.4834189e-01 1.00657000e+04 7.81653100e-03 6.93477400e-02
  1000022 -1    0    0    0    0 +0.0000000000e+00 +0.0000000000e+00 +4.4721471353e+01 1.0000100000e+04 1.0000000000e+04 0.0000e+00 1.0000e+00
  1000022 -1    0    0    0    0 -0.0000000000e+00 -0.0000000000e+00 -4.4721471353e+01 1.0000100000e+04 1.0000000000e+04 0.0000e+00 1.0000e+00
      -24  1    1    2    0    0 -1.7493306396e+02 -1.8566873092e+03 -4.4820341898e+03 4.8551923227e+03 7.9829010000e+01 0.0000e+00 1.0000e+00
       24  1    1    2    0    0 -6.4222486851e+02 +2.5678458657e+03 +9.5750539196e+03 9.9345012661e+03 7.9829010000e+01 0.0000e+00 1.0000e+00
       22  1    1    2    0    0 -3.6440670460e+00 -2.6595883552e+01 -6.8598466722e+01 7.3663898099e+01 0.0000000000e+00 0.0000e+00 -1.0000e+00
       22  1    1    2    0    0 +8.2080199952e+02 -6.8456267287e+02 -5.0244212631e+03 5.1368425131e+03 0.0000000000e+00 0.0000e+00 1.0000e+00
</event>
<event>
 6      1 +1.4834189e-01 1.01218200e+04 7.81653100e-03 6.93142200e-02
  1000022 -1    0    0    0    0 +0.0000000000e+00 +0.0000000000e+00 +4.4721471353e+01 1.0000100000e+04 1.0000000000e+04 0.0000e+00 1.0000e+00
  1000022 -1    0    0    0    0 -0.0000000000e+00 -0.0000000000e+00 -4.4721471353e+01 1.0000100000e+04 1.0000000000e+04 0.0000e+00 1.0000e+00
      -24  1    1    2    0    0 +3.4979803657e+03 -6.8223227708e+03 +6.2286528192e+03 9.8783826228e+03 7.9829010000e+01 0.0000e+00 -1.0000e+00
       24  1    1    2    0    0 -3.3937030356e+03 +6.0966957280e+03 -5.8814331918e+03 9.1260368263e+03 7.9829010000e+01 0.0000e+00 -1.0000e+00
       22  1    1    2    0    0 +1.4605174911e+01 +7.9259870816e+02 -2.6200578692e+02 8.3490901043e+02 0.0000000000e+00 0.0000e+00 1.0000e+00
       22  1    1    2    0    0 -1.1888250499e+02 -6.6971665320e+01 -8.5213840481e+01 1.6087154055e+02 0.0000000000e+00 0.0000e+00 -1.0000e+00
</event>
<event>
 6      1 +1.4834189e-01 1.02267600e+04 7.81653100e-03 6.92521200e-02
  1000022 -1    0    0    0    0 +0.0000000000e+00 +0.0000000000e+00 +4.4721471353e+01 1.0000100000e+04 1.0000000000e+04 0.0000e+00 -1.0000e+00
  1000022 -1    0    0    0    0 -0.0000000000e+00 -0.0000000000e+00 -4.4721471353e+01 1.0000100000e+04 1.0000000000e+04 0.0000e+00 -1.0000e+00
      -24  1    1    2    0    0 -8.9762493739e+03 +2.1971156072e+03 -5.3175301036e+02 9.2568625219e+03 7.9829010000e+01 0.0000e+00 1.0000e+00
       24  1    1    2    0    0 +9.4548023634e+03 -2.1087161297e+03 +1.2937214454e+03 9.7734364118e+03 7.9829010000e+01 0.0000e+00 1.0000e+00
       22  1    1    2    0    0 -3.5699570946e+02 -1.1640458191e+02 -7.5705696890e+02 8.4506284821e+02 0.0000000000e+00 0.0000e+00 1.0000e+00
       22  1    1    2    0    0 -1.2155728002e+02 +2.8005104494e+01 -4.9114661849e+00 1.2483821813e+02 0.0000000000e+00 0.0000e+00 -1.0000e+00
</event>
<event>
 6      1 +1.4834189e-01 1.00142600e+04 7.81653100e-03 6.93786500e-02
  1000022 -1    0    0    0    0 +0.0000000000e+00 +0.0000000000e+00 +4.4721471353e+01 1.0000100000e+04 1.0000000000e+04 0.0000e+00 1.0000e+00
  1000022 -1    0    0    0    0 -0.0000000000e+00 -0.0000000000e+00 -4.4721471353e+01 1.0000100000e+04 1.0000000000e+04 0.0000e+00 1.0000e+00
      -24  1    1    2    0    0 -2.3940116304e+03 +2.8084279666e+03 +7.5879370780e+03 8.4381112282e+03 7.9829010000e+01 0.0000e+00 1.0000e+00
       24  1    1    2    0    0 +2.5320641111e+03 -3.0827943921e+03 -9.1293812436e+03 9.9632798058e+03 7.9829010000e+01 0.0000e+00 1.0000e+00
       22  1    1    2    0    0 +1.3047465214e+01 +1.7434240360e+01 -6.2647691626e+00 2.2659135423e+01 0.0000000000e+00 0.0000e+00 1.0000e+00
       22  1    1    2    0    0 -1.5109994588e+02 +2.5693218523e+02 +1.5477089348e+03 1.5761498305e+03 0.0000000000e+00 0.0000e+00 1.0000e+00
</event>
<event>
 6      1 +1.4834189e-01 1.01091500e+04 7.81653100e-03 6.93217700e-02
  1000022 -1    0    0    0    0 +0.0000000000e+00 +0.0000000000e+00 +4.4721471353e+01 1.0000100000e+04 1.0000000000e+04 0.0000e+00 1.0000e+00
  1000022 -1    0    0    0    0 -0.0000000000e+00 -0.0000000000e+00 -4.4721471353e+01 1.0000100000e+04 1.0000000000e+04 0.0000e+00 1.0000e+00
      -24  1    1    2    0    0 +4.6220072731e+03 -1.2119811064e+03 +5.5523839330e+03 7.3257893394e+03 7.9829010000e+01 0.0000e+00 1.0000e+00
       24  1    1    2    0    0 -6.9652045883e+03 +1.4583146070e+03 -6.8691873185e+03 9.8910496682e+03 7.9829010000e+01 0.0000e+00 1.0000e+00
       22  1    1    2    0    0 +8.3766995346e+02 -1.6154669383e+02 +8.5138203372e+02 1.2052550156e+03 0.0000000000e+00 0.0000e+00 1.0000e+00
       22  1    1    2    0    0 +1.5055273618e+03 -8.4786806724e+01 +4.6542135185e+02 1.5781059769e+03 0.0000000000e+00 0.0000e+00 1.0000e+00
</event>
<event>
 6      1 +1.4834189e-01 1.00573200e+04 7.81653100e-03 6.93527600e-02
  1000022 -1    0    0    0    0 +0.0000000000e+00 +0.0000000000e+00 +4.4721471353e+01 1.0000100000e+04 1.0000000000e+04 0.0000e+00 -1.0000e+00
  1000022 -1    0    0    0    0 -0.0000000000e+00 -0.0000000000e+00 -4.4721471353e+01 1.0000100000e+04 1.0000000000e+04 0.0000e+00 -1.0000e+00
      -24  1    1    2    0    0 +5.2106688620e+02 -3.2438668324e+02 -8.0756572433e+01 6.2420486620e+02 7.9829010000e+01 0.0000e+00 1.0000e+00
       24  1    1    2    0    0 -6.7623337405e+03 +1.6288814926e+03 +5.2053917448e+03 8.6882039814e+03 7.9829010000e+01 0.0000e+00 -1.0000e+00
       22  1    1    2    0    0 -9.8821710450e+02 +2.4165170279e+02 +7.3433886323e+02 1.2546801015e+03 0.0000000000e+00 0.0000e+00 -1.0000e+00
       22  1    1    2    0    0 +7.2294839588e+03 -1.5461465121e+03 -5.8589740356e+03 9.4331110509e+03 0.0000000000e+00 0.0000e+00 -1.0000e+00
</event>
<event>
 6      1 +1.4834189e-01 7.48460500e+03 7.81653100e-03 7.11826700e-02
  1000022 -1    0    0    0    0 +0.0000000000e+00 +0.0000000000e+00 +4.4721471353e+01 1.0000100000e+04 1.0000000000e+04 0.0000e+00 1.0000e+00
  1000022 -1    0    0    0    0 -0.0000000000e+00 -0.0000000000e+00 -4.4721471353e+01 1.0000100000e+04 1.0000000000e+04 0.0000e+00 1.0000e+00
      -24  1    1    2    0    0 -3.8198563068e+02 +1.4489777856e+03 +4.2751496677e+03 4.5308638246e+03 7.9829010000e+01 0.0000e+00 -1.0000e+00
       24  1    1    2    0    0 +3.8577179244e+03 -6.8545218301e+03 -3.5631279910e+03 8.6353176464e+03 7.9829010000e+01 0.0000e+00 -1.0000e+00
       22  1    1    2    0    0 +2.3392067519e+02 +4.3665458553e+01 -1.6801189819e+02 2.9129633105e+02 0.0000000000e+00 0.0000e+00 1.0000e+00
       22  1    1    2    0    0 -3.7096529689e+03 +5.3618785859e+03 -5.4400977851e+02 6.5427221979e+03 0.0000000000e+00 0.0000e+00 -1.0000e+00
</event>
<event>
 6      1 +1.4834189e-01 1.00319900e+04 7.81653100e-03 6.93679700e-02
  1000022 -1    0    0    0    0 +0.0000000000e+00 +0.0000000000e+00 +4.4721471353e+01 1.0000100000e+04 1.0000000000e+04 0.0000e+00 1.0000e+00
  1000022 -1    0    0    0    0 -0.0000000000e+00 -0.0000000000e+00 -4.4721471353e+01 1.0000100000e+04 1.0000000000e+04 0.0000e+00 1.0000e+00
      -24  1    1    2    0    0 -3.9077898464e+03 +7.3387459344e+03 +5.1230429501e+03 9.7662661807e+03 7.9829010000e+01 0.0000e+00 1.0000e+00
       24  1    1    2    0    0 +3.6494218820e+03 -7.3624677306e+03 -5.0587752554e+03 9.6499632596e+03 7.9829010000e+01 0.0000e+00 1.0000e+00
       22  1    1    2    0    0 +3.1665739221e+02 -1.4689834295e+02 -1.5522051108e+02 3.8202674548e+02 0.0000000000e+00 0.0000e+00 -1.0000e+00
       22  1    1    2    0    0 -5.8289427780e+01 +1.7062013908e+02 +9.0952816436e+01 2.0194381414e+02 0.0000000000e+00 0.0000e+00 -1.0000e+00
</event>
<event>
 6      1 +1.4834189e-01 1.00025900e+04 7.81653100e-03 6.93856900e-02
  1000022 -1    0    0    0    0 +0.0000000000e+00 +0.0000000000e+00 +4.4721471353e+01 1.0000100000e+04 1.0000000000e+04 0.0000e+00 1.0000e+00
  1000022 -1    0    0    0    0 -0.0000000000e+00 -0.0000000000e+00 -4.4721471353e+01 1.0000100000e+04 1.0000000000e+04 0.0000e+00 1.0000e+00
      -24  1    1    2    0    0 -8.3179556926e+03 -3.6173879070e+03 -3.8180548815e+03 9.8416359374e+03 7.9829010000e+01 0.0000e+00 1.0000e+00
       24  1    1    2    0    0 +8.4595027178e+03 +3.6411265963e+03 +3.8556512233e+03 9.9846586396e+03 7.9829010000e+01 0.0000e+00 1.0000e+00
       22  1    1    2    0    0 -1.5280844146e+02 -2.8699352528e+01 -4.1627676764e+01 1.6095631733e+02 0.0000000000e+00 0.0000e+00 -1.0000e+00
       22  1    1    2    0    0 +1.1261416258e+01 +4.9606632776e+00 +4.0313349416e+00 1.2949105672e+01 0.0000000000e+00 0.0000e+00 1.0000e+00
</event>
<event>
 6      1 +1.4834189e-01 1.00512800e+04 7.81653100e-03 6.93563800e-02
  1000022 -1    0    0    0    0 +0.0000000000e+00 +0.0000000000e+00 +4.4721471353e+01 1.0000100000e+04 1.0000000000e+04 0.0000e+00 1.0000e+00
  1000022 -1    0    0    0    0 -0.0000000000e+00 -0.0000000000e+00 -4.4721471353e+01 1.0000100000e+04 1.0000000000e+04 0.0000e+00 1.0000e+00
      -24  1    1    2    0    0 +2.6716910928e+02 -2.7352885152e+02 -2.0330243844e+02 4.4034295484e+02 7.9829010000e+01 0.0000e+00 -1.0000e+00
       24  1    1    2    0    0 -3.1285253982e+01 +1.7199705276e+02 -1.0306934779e+02 2.1807731327e+02 7.9829010000e+01 0.0000e+00 -1.0000e+00
       22  1    1    2    0    0 -4.0692480418e+03 +8.6225539145e+03 -1.9447612083e+03 9.7308433237e+03 0.0000000000e+00 0.0000e+00 -1.0000e+00
       22  1    1    2    0    0 +3.8333641865e+03 -8.5210221157e+03 +2.2511329945e+03 9.6109364082e+03 0.0000000000e+00 0.0000e+00 -1.0000e+00
</event>
<event>
 6      1 +1.4834189e-01 1.00024200e+04 7.81653100e-03 6.93857900e-02
  1000022 -1    0    0    0    0 +0.0000000000e+00 +0.0000000000e+00 +4.4721471353e+01 1.0000100000e+04 1.0000000000e+04 0.0000e+00 -1.0000e+00
  1000022 -1    0    0    0    0 -0.0000000000e+00 -0.0000000000e+00 -4.4721471353e+01 1.0000100000e+04 1.0000000000e+04 0.0000e+00 -1.0000e+00
      -24  1    1    2    0    0 +4.3785784522e+03 -2.1997171031e+03 +8.6502759836e+03 9.9420496810e+03 7.9829010000e+01 0.0000e+00 -1.0000e+00
       24  1    1    2    0    0 +2.9268656488e+01 -1.1308707584e+01 -1.0805801503e+02 1.3796284489e+02 7.9829010000e+01 0.0000e+00 -1.0000e+00
       22  1    1    2    0    0 -4.3595160422e+03 +2.2287058595e+03 -8.5635917259e+03 9.8644621333e+03 0.0000000000e+00 0.0000e+00 -1.0000e+00
       22  1    1    2    0    0 -4.8331066433e+01 -1.7680048875e+01 +2.1373757357e+01 5.5725340863e+01 0.0000000000e+00 0.0000e+00 -1.0000e+00
</event>
<event>
 6      1 +1.4834189e-01 1.02349300e+04 7.81653100e-03 6.92473300e-02
  1000022 -1    0    0    0    0 +0.0000000000e+00 +0.0000000000e+00 +4.4721471353e+01 1.0000100000e+04 1.0000000000e+04 0.0000e+00 -1.0000e+00
  1000022 -1    0    0    0    0 -0.0000000000e+00 -0.0000000000e+00 -4.4721471353e+01 1.0000100000e+04 1.0000000000e+04 0.0000e+00 -1.0000e+00
      -24  1    1    2    0    0 -6.5606101252e+03 -6.4162142005e+03 +3.3383843278e+03 9.7652748283e+03 7.9829010000e+01 0.0000e+00 -1.0000e+00
       24  1    1    2    0    0 +4.1551389245e+03 +4.4474122840e+03 -6.6331862477e+02 6.1229910807e+03 7.9829010000e+01 0.0000e+00 -1.0000e+00
       22  1    1    2    0    0 +2.9193220138e+01 +3.0491352542e+01 +5.3781114805e-01 4.2216773002e+01 0.0000000000e+00 0.0000e+00 1.0000e+00
       22  1    1    2    0    0 +2.3762779806e+03 +1.9383105639e+03 -2.6756035142e+03 4.0697173180e+03 0.0000000000e+00 0.0000e+00 -1.0000e+00
</event>
<event>
 6      1 +1.4834189e-01 7.41422500e+03 7.81653100e-03 7.12428000e-02
  1000022 -1    0    0    0    0 +0.0000000000e+00 +0.0000000000e+00 +4.4721471353e+01 1.0000100000e+04 1.0000000000e+04 0.0000e+00 1.0000e+00
  1000022 -1    0    0    0    0 -0.0000000000e+00 -0.0000000000e+00 -4.4721471353e+01 1.0000100000e+04 1.0000000000e+04 0.0000e+00 1.0000e+00
      -24  1    1    2    0    0 -3.0110771407e+03 +3.3472940593e+03 +7.4157841924e+01 4.5036468693e+03 7.9829010000e+01 0.0000e+00 -1.0000e+00
       24  1    1    2    0    0 +7.8701936086e+03 +1.6517616215e+03 -1.8171564825e+03 8.2447980111e+03 7.9829010000e+01 0.0000e+00 -1.0000e+00
       22  1    1    2    0    0 -4.8946354631e+03 -5.0042353929e+03 +1.7494398056e+03 7.2152870918e+03 0.0000000000e+00 0.0000e+00 -1.0000e+00
       22  1    1    2    0    0 +3.5518995299e+01 +5.1797121187e+00 -6.4411650748e+00 3.6468027808e+01 0.0000000000e+00 0.0000e+00 -1.0000e+00
</event>
<event>
 6      1 +1.4834189e-01 1.00018700e+04 7.81653100e-03 6.93861300e-02
  1000022 -1    0    0    0    0 +0.0000000000e+00 +0.0000000000e+00 +4.4721471353e+01 1.0000100000e+04 1.0000000000e+04 0.0000e+00 1.0000e+00
  1000022 -1    0    0    0    0 -0.0000000000e+00 -0.0000000000e+00 -4.4721471353e+01 1.0000100000e+04 1.0000000000e+04 0.0000e+00 1.0000e+00
      -24  1    1    2    0    0 +8.2018383008e+03 +4.0760786823e+03 -3.7292585483e+03 9.8893028535e+03 7.9829010000e+01 0.0000e+00 1.0000e+00
       24  1    1    2    0    0 -8.1579592981e+03 -4.0425863365e+03 +3.7765425170e+03 9.8571522384e+03 7.9829010000e+01 0.0000e+00 1.0000e+00
       22  1    1    2    0    0 +7.4698183865e+01 +4.7895462866e+01 -6.3352289784e+01 1.0902892578e+02 0.0000000000e+00 0.0000e+00 -1.0000e+00
       22  1    1    2    0    0 -1.1857718666e+02 -8.1387808715e+01 +1.6068321029e+01 1.4471598234e+02 0.0000000000e+00 0.0000e+00 1.0000e+00
</event>
<event>
 6      1 +1.4834189e-01 1.03405300e+04 7.81653100e-03 6.91856500e-02
  1000022 -1    0    0    0    0 +0.0000000000e+00 +0.0000000000e+00 +4.4721471353e+01 1.0000100000e+04 1.0000000000e+04 0.0000e+00 -1.0000e+00
  1000022 -1    0    0    0    0 -0.0000000000e+00 -0.0000000000e+00 -4.4721471353e+01 1.0000100000e+04 1.0000000000e+04 0.0000e+00 -1.0000e+00
      -24  1    1    2    0    0 -4.4079680357e+03 +7.6644272906e+03 -2.9945289391e+03 9.3352666879e+03 7.9829010000e+01 0.0000e+00 -1.0000e+00
       24  1    1    2    0    0 +3.6989865136e+03 -8.1990426530e+03 +3.4301539192e+03 9.6270000641e+03 7.9829010000e+01 0.0000e+00 -1.0000e+00
       22  1    1    2    0    0 +7.9278751872e+00 -2.8581079519e+01 +1.3695423810e+01 3.2669465022e+01 0.0000000000e+00 0.0000e+00 1.0000e+00
       22  1    1    2    0    0 +7.0105364693e+02 +5.6319644191e+02 -4.4932040387e+02 1.0052637830e+03 0.0000000000e+00 0.0000e+00 1.0000e+00
</event>
<event>
 6      1 +1.4834189e-01 9.34240900e+03 7.81653100e-03 6.98004700e-02
  1000022 -1    0    0    0    0 +0.0000000000e+00 +0.0000000000e+00 +4.4721471353e+01 1.0000100000e+04 1.0000000000e+04 0.0000e+00 -1.0000e+00
  1000022 -1    0    0    0    0 -0.0000000000e+00 -0.0000000000e+00 -4.4721471353e+01 1.0000100000e+04 1.0000000000e+04 0.0000e+00 -1.0000e+00
      -24  1    1    2    0    0 +5.0390789579e+02 +3.2602220144e+03 -8.8998315680e+03 9.4919094686e+03 7.9829010000e+01 0.0000e+00 -1.0000e+00
       24  1    1    2    0    0 -1.0060930035e+03 -7.6161714625e+02 +1.5365510302e+02 1.2736822094e+03 7.9829010000e+01 0.0000e+00 -1.0000e+00
       22  1    1    2    0    0 +4.9311234311e+02 -2.5299089835e+03 +8.8010866819e+03 9.1707538420e+03 0.0000000000e+00 0.0000e+00 -1.0000e+00
       22  1    1    2    0    0 +9.0727645655e+00 +3.1304115344e+01 -5.4910216900e+01 6.3854479986e+01 0.0000000000e+00 0.0000e+00 1.0000e+00
</event>
<event>
 6      1 +1.4834189e-01 9.50106900e+03 7.81653100e-03 6.96977000e-02
  1000022 -1    0    0    0    0 +0.0000000000e+00 +0.0000000000e+00 +4.4721471353e+01 1.0000100000e+04 1.0000000000e+04 0.0000e+00 1.0000e+00
  1000022 -1    0    0    0    0 -0.0000000000e+00 -0.0000000000e+00 -4.4721471353e+01 1.0000100000e+04 1.0000000000e+04 0.0000e+00 1.0000e+00
      -24  1    1    2    0    0 +2.5071032675e+02 +8.7219135162e+02 +3.4402591368e+02 9.7380692229e+02 7.9829010000e+01 0.0000e+00 -1.0000e+00
       24  1    1    2    0    0 -6.4791027950e+03 +1.5651551371e+03 -6.2141339998e+03 9.1131947016e+03 7.9829010000e+01 0.0000e+00 -1.0000e+00
       22  1    1    2    0    0 -3.5892327566e+02 +1.0002208404e+02 -3.4512232673e+02 5.0787769740e+02 0.0000000000e+00 0.0000e+00 1.0000e+00
       22  1    1    2    0    0 +6.5873157439e+03 -2.5373685727e+03 +6.2152304128e+03 9.4053206787e+03 0.0000000000e+00 0.0000e+00 -1.0000e+00
</event>
<event>
 6      1 +1.4834189e-01 1.00248600e+04 7.81653100e-03 6.93722600e-02
  1000022 -1    0    0    0    0 +0.0000000000e+00 +0.0000000000e+00 +4.4721471353e+01 1.0000100000e+04 1.0000000000e+04 0.0000e+00 -1.0000e+00
  1000022 -1    0    0    0    0 -0.0000000000e+00 -0.0000000000e+00 -4.4721471353e+01 1.0000100000e+04 1.0000000000e+04 0.0000e+00 -1.0000e+00
      -24  1    1    2    0    0 -6.5405856760e+03 -4.7147171736e+03 -5.8730884659e+03 9.9753375788e+03 7.9829010000e+01 0.0000e+00 -1.0000e+00
       24  1    1    2    0    0 +6.4801828092e+03 +4.5394271418e+03 +5.6362346608e+03 9.7145603008e+03 7.9829010000e+01 0.0000e+00 -1.0000e+00
       22  1    1    2    0    0 +3.8105463047e+01 +1.3985471337e+02 +2.2343859415e+02 2.6633845483e+02 0.0000000000e+00 0.0000e+00 1.0000e+00
       22  1    1    2    0    0 +2.2297403744e+01 +3.5435318439e+01 +1.3415210956e+01 4.3963665584e+01 0.0000000000e+00 0.0000e+00 1.0000e+00
</event>
<event>
 6      1 +1.4834189e-01 1.02080500e+04 7.81653100e-03 6.92631400e-02
  1000022 -1    0    0    0    0 +0.0000000000e+00 +0.0000000000e+00 +4.4721471353e+01 1.0000100000e+04 1.0000000000e+04 0.0000e+00 1.0000e+00
  1000022 -1    0    0    0    0 -0.0000000000e+00 -0.0000000000e+00 -4.4721471353e+01 1.0000100000e+04 1.0000000000e+04 0.0000e+00 1.0000e+00
      -24  1    1    2    0    0 -6.5352278737e+03 +1.2001509194e+03 -2.6234920120e+03 7.1441338592e+03 7.9829010000e+01 0.0000e+00 1.0000e+00
       24  1    1    2    0    0 +8.8665223035e+03 +5.3837075089e+01 +4.1547218142e+03 9.7921500301e+03 7.9829010000e+01 0.0000e+00 1.0000e+00
       22  1    1    2    0    0 -2.3845450178e+01 +4.9211354614e+00 -6.6242290665e+00 2.5232983952e+01 0.0000000000e+00 0.0000e+00 1.0000e+00
       22  1    1    2    0    0 -2.3074489796e+03 -1.2589091299e+03 -1.5246055731e+03 3.0386831267e+03 0.0000000000e+00 0.0000e+00 -1.0000e+00
</event>
<event>
 6      1 +1.4834189e-01 1.03004100e+04 7.81653100e-03 6.92090000e-02
  1000022 -1    0    0    0    0 +0.0000000000e+00 +0.0000000000e+00 +4.4721471353e+01 1.0000100000e+04 1.0000000000e+04 0.0000e+00 1.0000e+00
  1000022 -1    0    0    0    0 -0.0000000000e+00 -0.0000000000e+00 -4.4721471353e+01 1.0000100000e+04 1.0000000000e+04 0.0000e+00 1.0000e+00
      -24  1    1    2    0    0 -5.9174422659e+03 +5.6100133597e+02 +7.5448895366e+03 9.6053410278e+03 7.9829010000e+01 0.0000e+00 1.0000e+00
       24  1    1    2    0    0 +2.7631482247e+03 -1.9391115382e+03 -3.0478599187e+03 4.5487321776e+03 7.9829010000e+01 0.0000e+00 1.0000e+00
       22  1    1    2    0    0 +3.2257750412e+03 +1.3762478400e+03 -4.5587382123e+03 5.7516760012e+03 0.0000000000e+00 0.0000e+00 1.0000e+00
       22  1    1    2    0    0 -7.1480999974e+01 +1.8623621903e+00 +6.1708594425e+01 9.4450793412e+01 0.0000000000e+00 0.0000e+00 -1.0000e+00
</event>
<event>
 6      1 +1.4834189e-01 1.01342800e+04 7.81653100e-03 6.93068000e-02
  1000022 -1    0    0    0    0 +0.0000000000e+00 +0.0000000000e+00 +4.4721471353e+01 1.0000100000e+04 1.0000000000e+04 0.0000e+00 1.0000e+00
  1000022 -1    0    0    0    0 -0.0000000000e+00 -0.0000000000e+00 -4.4721471353e+01 1.0000100000e+04 1.0000000000e+04 0.0000e+00 1.0000e+00
      -24  1    1    2    0    0 +4.7232379247e+02 -3.1442361876e+03 +8.7802503110e+03 9.3385480222e+03 7.9829010000e+01 0.0000e+00 -1.0000e+00
       24  1    1    2    0    0 +1.1801450356e+02 +3.2059479886e+03 -9.2756751296e+03 9.8151185276e+03 7.9829010000e+01 0.0000e+00 -1.0000e+00
       22  1    1    2    0    0 +3.3430222823e+01 +3.6562712659e+01 +1.1223735572e+01 5.0797480205e+01 0.0000000000e+00 0.0000e+00 1.0000e+00
       22  1    1    2    0    0 -6.2376851885e+02 -9.8274513696e+01 +4.8420108310e+02 7.9573597004e+02 0.0000000000e+00 0.0000e+00 -1.0000e+00
</event>
<event>
 6      1 +1.4834189e-01 1.00002000e+04 7.81653100e-03 6.93871300e-02
  1000022 -1    0    0    0    0 +0.0000000000e+00 +0.0000000000e+00 +4.4721471353e+01 1.0000100000e+04 1.0000000000e+04 0.0000e+00 -1.0000e+00
  1000022 -1    0    0    0    0 -0.0000000000e+00 -0.0000000000e+00 -4.4721471353e+01 1.0000100000e+04 1.0000000000e+04 0.0000e+00 -1.0000e+00
      -24  1    1    2    0    0 +5.8576286108e+03 +2.4968232843e+03 +7.6564742728e+03 9.9586098636e+03 7.9829010000e+01 0.0000e+00 1.0000e+00
       24  1    1    2    0    0 -5.8616612844e+03 -2.5021040969e+03 -7.6661358149e+03 9.9697346468e+03 7.9829010000e+01 0.0000e+00 1.0000e+00
       22  1    1    2    0    0 -1.7147699351e+01 -7.4513333948e+00 -2.3794930643e+01 3.0261604166e+01 0.0000000000e+00 0.0000e+00 -1.0000e+00
       22  1    1    2    0    0 +2.1180372900e+01 +1.2732145976e+01 +3.3456472727e+01 4.1593885424e+01 0.0000000000e+00 0.0000e+00 1.0000e+00
</event>
<event>
 6      1 +1.4834189e-01 1.08824600e+04 7.81653100e-03 6.88803900e-02
  1000022 -1    0    0    0    0 +0.0000000000e+00 +0.0000000000e+00 +4.4721471353e+01 1.0000100000e+04 1.0000000000e+04 0.0000e+00 1.0000e+00
  1000022 -1    0    0    0    0 -0.0000000000e+00 -0.0000000000e+00 -4.4721471353e+01 1.0000100000e+04 1.0000000000e+04 0.0000e+00 1.0000e+00
      -24  1    1    2    0    0 +5.7919478195e+03 -6.6667858062e+03 +1.3617367621e+03 8.9360725271e+03 7.9829010000e+01 0.0000e+00 -1.0000e+00
       24  1    1    2    0    0 -7.0011163683e+03 +4.7271841169e+03 -9.3426074705e+02 8.4994773894e+03 7.9829010000e+01 0.0000e+00 -1.0000e+00
       22  1    1    2    0    0 +1.1974729313e+02 -1.2315527168e+02 +5.9136649940e+01 1.8166942098e+02 0.0000000000e+00 0.0000e+00 -1.0000e+00
       22  1    1    2    0    0 +1.0894212557e+03 +2.0627569610e+03 -4.8661266502e+02 2.3829806626e+03 0.0000000000e+00 0.0000e+00 -1.0000e+00
</event>
<event>
 6      1 +1.4834189e-01 1.00116500e+04 7.81653100e-03 6.93802300e-02
  1000022 -1    0    0    0    0 +0.0000000000e+00 +0.0000000000e+00 +4.4721471353e+01 1.0000100000e+04 1.0000000000e+04 0.0000e+00 1.0000e+00
  1000022 -1    0    0    0    0 -0.0000000000e+00 -0.0000000000e+00 -4.4721471353e+01 1.0000100000e+04 1.0000000000e+04 0.0000e+00 1.0000e+00
      -24  1    1    2    0    0 +2.7328813984e+03 -7.0598818815e+03 -5.0582117982e+03 9.1050783733e+03 7.9829010000e+01 0.0000e+00 -1.0000e+00
       24  1    1    2    0    0 -2.8775517357e+03 +7.0781787945e+03 +5.6537245678e+03 9.5053612871e+03 7.9829010000e+01 0.0000e+00 -1.0000e+00
       22  1    1    2    0    0 +4.3995755825e+02 -3.8870291721e+02 -6.9080479767e+02 9.0656708489e+02 0.0000000000e+00 0.0000e+00 1.0000e+00
       22  1    1    2    0    0 -2.9528722094e+02 +3.7040600416e+02 +9.5292028067e+01 4.8319325469e+02 0.0000000000e+00 0.0000e+00 -1.0000e+00
</event>
<event>
 6      1 +1.4834189e-01 1.00071800e+04 7.81653100e-03 6.93829200e-02
  1000022 -1    0    0    0    0 +0.0000000000e+00 +0.0000000000e+00 +4.4721471353e+01 1.0000100000e+04 1.0000000000e+04 0.0000e+00 1.0000e+00
  1000022 -1    0    0    0    0 -0.0000000000e+00 -0.0000000000e+00 -4.4721471353e+01 1.0000100000e+04 1.0000000000e+04 0.0000e+00 1.0000e+00
      -24  1    1    2    0    0 +1.3186099622e+01 -8.6521495595e+02 -7.8532800124e+02 1.1712743204e+03 7.9829010000e+01 0.0000e+00 1.0000e+00
       24  1    1    2    0    0 -1.0773817824e+03 +6.4619371102e+03 +4.5872771593e+03 7.9979289274e+03 7.9829010000e+01 0.0000e+00 1.0000e+00
       22  1    1    2    0    0 +1.1939822002e+03 -7.1849510855e+03 -5.0024031829e+03 8.8359013801e+03 0.0000000000e+00 0.0000e+00 1.0000e+00
       22  1    1    2    0    0 -1.2978651740e+02 +1.5882289312e+03 +1.2004540248e+03 1.9950953721e+03 0.0000000000e+00 0.0000e+00 -1.0000e+00
</event>
<event>
 6      1 +1.4834189e-01 1.00001800e+04 7.81653100e-03 6.93871500e-02
  1000022 -1    0    0    0    0 +0.0000000000e+00 +0.0000000000e+00 +4.4721471353e+01 1.0000100000e+04 1.0000000000e+04 0.0000e+00 -1.0000e+00
  1000022 -1    0    0    0    0 -0.0000000000e+00 -0.0000000000e+00 -4.4721471353e+01 1.0000100000e+04 1.0000000000e+04 0.0000e+00 -1.0000e+00
      -24  1    1    2    0    0 +7.7479271396e+03 +6.0824138600e+03 +1.8495305879e+01 9.8505252688e+03 7.9829010000e+01 0.0000e+00 1.0000e+00
       24  1    1    2    0    0 -7.8514682694e+03 -6.1691516567e+03 -1.2008303353e+01 9.9855146597e+03 7.9829010000e+01 0.0000e+00 1.0000e+00
       22  1    1    2    0    0 -1.1645318312e+01 -8.6253197020e+00 -7.1026524856e-01 1.4509102497e+01 0.0000000000e+00 0.0000e+00 1.0000e+00
       22  1    1    2    0    0 +1.1518644815e+02 +9.5363116417e+01 -5.7767372777e+00 1.4965096893e+02 0.0000000000e+00 0.0000e+00 -1.0000e+00
</event>
<event>
 6      1 +1.4834189e-01 1.01310300e+04 7.81653100e-03 6.93087400e-02
  1000022 -1    0    0    0    0 +0.0000000000e+00 +0.0000000000e+00 +4.4721471353e+01 1.0000100000e+04 1.0000000000e+04 0.0000e+00 1.0000e+00
  1000022 -1    0    0    0    0 -0.0000000000e+00 -0.0000000000e+00 -4.4721471353e+01 1.0000100000e+04 1.0000000000e+04 0.0000e+00 1.0000e+00
      -24  1    1    2    0    0 -3.7366526620e+03 +4.3086702143e+03 +7.0048962068e+03 9.0333911501e+03 7.9829010000e+01 0.0000e+00 -1.0000e+00
       24  1    1    2    0    0 +3.8241268012e+03 -5.2745640216e+03 -7.2285352565e+03 9.7315500325e+03 7.9829010000e+01 0.0000e+00 -1.0000e+00
       22  1    1    2    0    0 +1.0727420473e+01 -1.1677749166e+02 +7.2025359614e+01 1.3762162816e+02 0.0000000000e+00 0.0000e+00 1.0000e+00
       22  1    1    2    0    0 -9.8201559666e+01 +1.0826712991e+03 +1.5161369007e+02 1.0976371892e+03 0.0000000000e+00 0.0000e+00 -1.0000e+00
</event>
<event>
 6      1 +1.4834189e-01 1.00358700e+04 7.81653100e-03 6.93656400e-02
  1000022 -1    0    0    0    0 +0.0000000000e+00 +0.0000000000e+00 +4.4721471353e+01 1.0000100000e+04 1.0000000000e+04 0.0000e+00 -1.0000e+00
  1000022 -1    0    0    0    0 -0.0000000000e+00 -0.0000000000e+00 -4.4721471353e+01 1.0000100000e+04 1.0000000000e+04 0.0000e+00 -1.0000e+00
      -24  1    1    2    0    0 +1.2415542597e+03 -6.9802394926e+03 +7.0011578377e+03 9.9643255714e+03 7.9829010000e+01 0.0000e+00 -1.0000e+00
       24  1    1    2    0    0 -3.4098271978e+02 +2.1992278923e+03 -2.0059806917e+03 2.9971993166e+03 7.9829010000e+01 0.0000e+00 1.0000e+00
       22  1    1    2    0    0 -9.1599031034e+02 +4.0136710404e+03 -4.6075615158e+03 6.1788523684e+03 0.0000000000e+00 0.0000e+00 -1.0000e+00
       22  1    1    2    0    0 +1.5418770385e+01 +7.6734055996e+02 -3.8761563024e+02 8.5982274351e+02 0.0000000000e+00 0.0000e+00 1.0000e+00
</event>
<event>
 6      1 +1.4834189e-01 1.00001100e+04 7.81653100e-03 6.93871900e-02
  1000022 -1    0    0    0    0 +0.0000000000e+00 +0.0000000000e+00 +4.4721471353e+01 1.0000100000e+04 1.0000000000e+04 0.0000e+00 1.0000e+00
  1000022 -1    0    0    0    0 -0.0000000000e+00 -0.0000000000e+00 -4.4721471353e+01 1.0000100000e+04 1.0000000000e+04 0.0000e+00 1.0000e+00
      -24  1    1    2    0    0 +6.5795236655e+03 +2.5823508952e+03 -6.4747783744e+03 9.5858121972e+03 7.9829010000e+01 0.0000e+00 -1.0000e+00
       24  1    1    2    0    0 -6.4474184426e+03 -2.5434544369e+03 +6.3414302800e+03 9.3945982199e+03 7.9829010000e+01 0.0000e+00 -1.0000e+00
       22  1    1    2    0    0 +2.8646439764e+02 +1.1631149079e+02 -2.7574387171e+02 4.1427635316e+02 0.0000000000e+00 0.0000e+00 -1.0000e+00
       22  1    1    2    0    0 -4.1856962058e+02 -1.5520794914e+02 +4.0909196607e+02 6.0551322979e+02 0.0000000000e+00 0.0000e+00 -1.0000e+00
</event>
<event>
 6      1 +1.4834189e-01 1.01017900e+04 7.81653100e-03 6.93261500e-02
  1000022 -1    0    0    0    0 +0.0000000000e+00 +0.0000000000e+00 +4.4721471353e+01 1.0000100000e+04 1.0000000000e+04 0.0000e+00 1.0000e+00
  1000022 -1    0    0    0    0 -0.0000000000e+00 -0.0000000000e+00 -4.4721471353e+01 1.0000100000e+04 1.0000000000e+04 0.0000e+00 1.0000e+00
      -24  1    1    2    0    0 +4.9362361211e+02 -7.9489648208e+03 +5.7562634507e+03 9.8270365613e+03 7.9829010000e+01 0.0000e+00 1.0000e+00
       24  1    1    2    0    0 -5.1340300694e+02 +7.4811765799e+03 -5.4469903253e+03 9.2686386240e+03 7.9829010000e+01 0.0000e+00 1.0000e+00
       22  1    1    2    0    0 -2.4497686312e+02 +4.4056408671e+02 -3.7749031790e+02 6.2976925780e+02 0.0000000000e+00 0.0000e+00 -1.0000e+00
       22  1    1    2    0    0 +2.6475625795e+02 +2.7224154180e+01 +6.8217192429e+01 2.7475555688e+02 0.0000000000e+00 0.0000e+00 -1.0000e+00
</event>
<event>
 6      1 +1.4834189e-01 1.03801400e+04 7.81653100e-03 6.91627100e-02
  1000022 -1    0    0    0    0 +0.0000000000e+00 +0.0000000000e+00 +4.4721471353e+01 1.0000100000e+04 1.0000000000e+04 0.0000e+00 -1.0000e+00
  1000022 -1    0    0    0    0 -0.0000000000e+00 -0.0000000000e+00 -4.4721471353e+01 1.0000100000e+04 1.0000000000e+04 0.0000e+00 -1.0000e+00
      -24  1    1    2    0    0 +3.9178027201e+03 +4.7499737800e+03 -7.3910581604e+03 9.6200593795e+03 7.9829010000e+01 0.0000e+00 1.0000e+00
       24  1    1    2    0    0 -6.8894432971e+02 -4.9825659553e+02 +8.0319186728e+02 1.1723454145e+03 7.9829010000e+01 0.0000e+00 1.0000e+00
       22  1    1    2    0    0 -1.2040029530e+03 -9.6356748369e+02 -3.3704830550e+01 1.5424725028e+03 0.0000000000e+00 0.0000e+00 1.0000e+00
       22  1    1    2    0    0 -2.0248554374e+03 -3.2881497008e+03 +6.6215711237e+03 7.6653227031e+03 0.0000000000e+00 0.0000e+00 1.0000e+00
</event>
<event>
 6      1 +1.4834189e-01 1.00068400e+04 7.81653100e-03 6.93831300e-02
  1000022 -1    0    0    0    0 +0.0000000000e+00 +0.0000000000e+00 +4.4721471353e+01 1.0000100000e+04 1.0000000000e+04 0.0000e+00 1.0000e+00
  1000022 -1    0    0    0    0 -0.0000000000e+00 -0.0000000000e+00 -4.4721471353e+01 1.0000100000e+04 1.0000000000e+04 0.0000e+00 1.0000e+00
      -24  1    1    2    0    0 +6.9798198768e+03 +6.5719005757e+03 -2.1220176559e+03 9.8192206560e+03 7.9829010000e+01 0.0000e+00 -1.0000e+00
       24  1    1    2    0    0 -7.8752874371e+02 -4.9773480887e+02 +3.0715301175e+02 9.8420379271e+02 7.9829010000e+01 0.0000e+00 1.0000e+00
       22  1    1    2    0    0 -6.3145756608e+03 -6.1935728758e+03 +1.7814817612e+03 9.0226319890e+03 0.0000000000e+00 0.0000e+00 -1.0000e+00
       22  1    1    2    0    0 +1.2228452777e+02 +1.1940710892e+02 +3.3382883005e+01 1.7414356224e+02 0.0000000000e+00 0.0000e+00 -1.0000e+00
</event>
<event>
 6      1 +1.4834189e-01 1.02898200e+04 7.81653100e-03 6.92151800e-02
  1000022 -1    0    0    0    0 +0.0000000000e+00 +0.0000000000e+00 +4.4721471353e+01 1.0000100000e+04 1.0000000000e+04 0.0000e+00 1.0000e+00
  1000022 -1    0    0    0    0 -0.0000000000e+00 -0.0000000000e+00 -4.4721471353e+01 1.0000100000e+04 1.0000000000e+04 0.0000e+00 1.0000e+00
      -24  1    1    2    0    0 +8.8508622656e+02 +3.6442879119e+02 +6.3758665877e+02 1.1528553207e+03 7.9829010000e+01 0.0000e+00 1.0000e+00
       24  1    1    2    0    0 -9.5439844396e+03 +1.4838730118e+03 +9.9783166590e+02 9.7103840708e+03 7.9829010000e+01 0.0000e+00 1.0000e+00
       22  1    1    2    0    0 +8.4518005897e+03 -1.7769707647e+03 -1.8476067859e+03 8.8319991588e+03 0.0000000000e+00 0.0000e+00 1.0000e+00
       22  1    1    2    0    0 +2.0709762338e+02 -7.1331038326e+01 +2.1218846127e+02 3.0496144958e+02 0.0000000000e+00 0.0000e+00 1.0000e+00
</event>
<event>
 6      1 +1.4834189e-01 1.07106900e+04 7.81653100e-03 6.89751800e-02
  1000022 -1    0    0    0    0 +0.0000000000e+00 +0.0000000000e+00 +4.4721471353e+01 1.0000100000e+04 1.0000000000e+04 0.0000e+00 1.0000e+00
  1000022 -1    0    0    0    0 -0.0000000000e+00 -0.0000000000e+00 -4.4721471353e+01 1.0000100000e+04 1.0000000000e+04 0.0000e+00 1.0000e+00
      -24  1    1    2    0    0 +1.5636154936e+03 -5.0892170021e+03 +5.0654274815e+03 7.3491463006e+03 7.9829010000e+01 0.0000e+00 1.0000e+00
       24  1    1    2    0    0 +1.2382740327e+03 +5.2400652171e+03 -3.7192066752e+03 6.5444997535e+03 7.9829010000e+01 0.0000e+00 1.0000e+00
       22  1    1    2    0    0 +2.5962321493e+02 -5.3928533882e+02 -2.6789670633e+03 2.7450131906e+03 0.0000000000e+00 0.0000e+00 1.0000e+00
       22  1    1    2    0    0 -3.0615127412e+03 +3.8843712382e+02 +1.3327462570e+03 3.3615407553e+03 0.0000000000e+00 0.0000e+00 1.0000e+00
</event>
<event>
 6      1 +1.4834189e-01 1.02708900e+04 7.81653100e-03 6.92262400e-02
  1000022 -1    0    0    0    0 +0.0000000000e+00 +0.0000000000e+00 +4.4721471353e+01 1.0000100000e+04 1.0000000000e+04 0.0000e+00 -1.0000e+00
  1000022 -1    0    0    0    0 -0.0000000000e+00 -0.0000000000e+00 -4.4721471353e+01 1.0000100000e+04 1.0000000000e+04 0.0000e+00 -1.0000e+00
      -24  1    1    2    0    0 +2.0351932493e+03 +9.5128327480e+03 +1.3097789343e+02 9.7293127369e+03 7.9829010000e+01 0.0000e+00 -1.0000e+00
       24  1    1    2    0    0 -5.4660747301e+02 -5.1757006651e+03 -3.2632358179e+02 5.2153156045e+03 7.9829010000e+01 0.0000e+00 -1.0000e+00
       22  1    1    2    0    0 -2.3413207526e+02 -3.5517938289e+03 -2.2815334962e+01 3.5595755043e+03 0.0000000000e+00 0.0000e+00 -1.0000e+00
       22  1    1    2    0    0 -1.2544537010e+03 -7.8533825409e+02 +2.1816102332e+02 1.4959961542e+03 0.0000000000e+00 0.0000e+00 -1.0000e+00
</event>
<event>
 6      1 +1.4834189e-01 1.00103300e+04 7.81653100e-03 6.93810200e-02
  1000022 -1    0    0    0    0 +0.0000000000e+00 +0.0000000000e+00 +4.4721471353e+01 1.0000100000e+04 1.0000000000e+04 0.0000e+00 1.0000e+00
  1000022 -1    0    0    0    0 -0.0000000000e+00 -0.0000000000e+00 -4.4721471353e+01 1.0000100000e+04 1.0000000000e+04 0.0000e+00 1.0000e+00
      -24  1    1    2    0    0 -4.2704025582e+03 +2.1619825582e+02 +3.6069319522e+03 5.5945876053e+03 7.9829010000e+01 0.0000e+00 -1.0000e+00
       24  1    1    2    0    0 +7.2951947986e+03 -6.4973285879e+02 -6.7113300022e+03 9.9343013346e+03 7.9829010000e+01 0.0000e+00 -1.0000e+00
       22  1    1    2    0    0 -3.0063691111e+03 +4.6055741649e+02 +3.1730328659e+03 4.3952822360e+03 0.0000000000e+00 0.0000e+00 1.0000e+00
       22  1    1    2    0    0 -1.8423129367e+01 -2.7022813515e+01 -6.8634815870e+01 7.6028824109e+01 0.0000000000e+00 0.0000e+00 1.0000e+00
</event>
<event>
 6      1 +1.4834189e-01 1.00001400e+04 7.81653100e-03 6.93871700e-02
  1000022 -1    0    0    0    0 +0.0000000000e+00 +0.0000000000e+00 +4.4721471353e+01 1.0000100000e+04 1.0000000000e+04 0.0000e+00 -1.0000e+00
  1000022 -1    0    0    0    0 -0.0000000000e+00 -0.0000000000e+00 -4.4721471353e+01 1.0000100000e+04 1.0000000000e+04 0.0000e+00 -1.0000e+00
      -24  1    1    2    0    0 +6.2322783143e+03 -3.8890740937e+03 +5.3645521332e+03 9.0967567052e+03 7.9829010000e+01 0.0000e+00 1.0000e+00
       24  1    1    2    0    0 -6.7594174659e+03 +4.2273566262e+03 -5.8361360682e+03 9.8806439770e+03 7.9829010000e+01 0.0000e+00 1.0000e+00
       22  1    1    2    0    0 -8.0184114536e+01 +5.4673325789e+01 -6.9574480794e+01 1.1941219852e+02 0.0000000000e+00 0.0000e+00 1.0000e+00
       22  1    1    2    0    0 +6.0732326617e+02 -3.9295585831e+02 +5.4115841578e+02 9.0338711922e+02 0.0000000000e+00 0.0000e+00 -1.0000e+00
</event>
<event>
 6      1 +1.4834189e-01 1.00146100e+04 7.81653100e-03 6.93784400e-02
  1000022 -1    0    0    0    0 +0.0000000000e+00 +0.0000000000e+00 +4.4721471353e+01 1.0000100000e+04 1.0000000000e+04 0.0000e+00 1.0000e+00
  1000022 -1    0    0    0    0 -0.0000000000e+00 -0.0000000000e+00 -4.4721471353e+01 1.0000100000e+04 1.0000000000e+04 0.0000e+00 1.0000e+00
      -24  1    1    2    0    0 -5.3886351025e+01 -4.0131199579e+01 +2.5417908475e+01 1.0739177303e+02 7.9829010000e+01 0.0000e+00 0.0000e+00
       24  1    1    2    0    0 +6.4127772844e+02 +1.1949962592e+02 -3.1806174859e+02 7.3010494611e+02 7.9829010000e+01 0.0000e+00 1.0000e+00
       22  1    1    2    0    0 +7.3678128561e+03 +1.5820073636e+03 -5.3737004614e+03 9.2554886543e+03 0.0000000000e+00 0.0000e+00 1.0000e+00
       22  1    1    2    0    0 -7.9552042335e+03 -1.6613757899e+03 +5.6663443015e+03 9.9072146265e+03 0.0000000000e+00 0.0000e+00 1.0000e+00
</event>
<event>
 6      1 +1.4834189e-01 1.00009300e+04 7.81653100e-03 6.93866900e-02
  1000022 -1    0    0    0    0 +0.0000000000e+00 +0.0000000000e+00 +4.4721471353e+01 1.0000100000e+04 1.0000000000e+04 0.0000e+00 -1.0000e+00
  1000022 -1    0    0    0    0 -0.0000000000e+00 -0.0000000000e+00 -4.4721471353e+01 1.0000100000e+04 1.0000000000e+04 0.0000e+00 -1.0000e+00
      -24  1    1    2    0    0 -7.3580904617e+02 +1.2192391443e+03 +4.8637060597e+02 1.5069466084e+03 7.9829010000e+01 0.0000e+00 0.0000e+00
       24  1    1    2    0    0 +4.9695858159e+03 -7.9659368970e+03 -3.2937709938e+03 9.9502881294e+03 7.9829010000e+01 0.0000e+00 -1.0000e+00
       22  1    1    2    0    0 +1.9630981279e+01 -4.2349289757e+01 -1.4849599063e+01 4.8983143644e+01 0.0000000000e+00 0.0000e+00 1.0000e+00
       22  1    1    2    0    0 -4.2534077510e+03 +6.7890470424e+03 +2.8222499869e+03 8.4939821185e+03 0.0000000000e+00 0.0000e+00 -1.0000e+00
</event>
<event>
 6      1 +1.4834189e-01 7.38780300e+03 7.81653100e-03 7.12655500e-02
  1000022 -1    0    0    0    0 +0.0000000000e+00 +0.0000000000e+00 +4.4721471353e+01 1.0000100000e+04 1.0000000000e+04 0.0000e+00 1.0000e+00
  1000022 -1    0    0    0    0 -0.0000000000e+00 -0.0000000000e+00 -4.4721471353e+01 1.0000100000e+04 1.0000000000e+04 0.0000e+00 1.0000e+00
      -24  1    1    2    0    0 -1.6141751138e+02 +8.2806088175e+01 +7.7789305558e+01 2.1292324466e+02 7.9829010000e+01 0.0000e+00 1.0000e+00
       24  1    1    2    0    0 -5.9477328512e+03 -1.2348760044e+03 -1.1709038109e+03 6.1869082117e+03 7.9829010000e+01 0.0000e+00 -1.0000e+00
       22  1    1    2    0    0 -1.1374423064e+03 -1.3281138226e+03 -4.0250134574e+03 4.3884387495e+03 0.0000000000e+00 0.0000e+00 1.0000e+00
       22  1    1    2    0    0 +7.2465926689e+03 +2.4801837388e+03 +5.1181279628e+03 9.2119297941e+03 0.0000000000e+00 0.0000e+00 -1.0000e+00
</event>
<event>
 6      1 +1.4834189e-01 1.00001000e+04 7.81653100e-03 6.93871900e-02
  1000022 -1    0    0    0    0 +0.0000000000e+00 +0.0000000000e+00 +4.4721471353e+01 1.0000100000e+04 1.0000000000e+04 0.0000e+00 1.0000e+00
  1000022 -1    0    0    0    0 -0.0000000000e+00 -0.0000000000e+00 -4.4721471353e+01 1.0000100000e+04 1.0000000000e+04 0.0000e+00 1.0000e+00
      -24  1    1    2    0    0 -4.5471318429e+02 -7.5798659504e+03 +6.1819155364e+03 9.7920163539e+03 7.9829010000e+01 0.0000e+00 1.0000e+00
       24  1    1    2    0    0 +4.6026934085e+02 +7.7265014344e+03 -6.3017154555e+03 9.9814158632e+03 7.9829010000e+01 0.0000e+00 1.0000e+00
       22  1    1    2    0    0 -6.3301195801e+00 -1.6176943259e+02 +1.3072800772e+02 2.0808467444e+02 0.0000000000e+00 0.0000e+00 1.0000e+00
       22  1    1    2    0    0 +7.7396302429e-01 +1.5133948581e+01 -1.0928088673e+01 1.8683108426e+01 0.0000000000e+00 0.0000e+00 1.0000e+00
</event>
<event>
 6      1 +1.4834189e-01 1.00027600e+04 7.81653100e-03 6.93855900e-02
  1000022 -1    0    0    0    0 +0.0000000000e+00 +0.0000000000e+00 +4.4721471353e+01 1.0000100000e+04 1.0000000000e+04 0.0000e+00 1.0000e+00
  1000022 -1    0    0    0    0 -0.0000000000e+00 -0.0000000000e+00 -4.4721471353e+01 1.0000100000e+04 1.0000000000e+04 0.0000e+00 1.0000e+00
      -24  1    1    2    0    0 -7.2823927798e+02 +2.1613140434e+03 +9.7281177178e+03 9.9922098579e+03 7.9829010000e+01 0.0000e+00 1.0000e+00
       24  1    1    2    0    0 +4.2299673077e+02 -1.1998005627e+03 -5.4586466080e+03 5.6055011449e+03 7.9829010000e+01 0.0000e+00 1.0000e+00
       22  1    1    2    0    0 -8.6119940787e+00 +5.1463480045e+00 +3.2574179600e+00 1.0548085682e+01 0.0000000000e+00 0.0000e+00 1.0000e+00
       22  1    1    2    0    0 +3.1385454129e+02 -9.6665982874e+02 -4.2727285279e+03 4.3919409115e+03 0.0000000000e+00 0.0000e+00 1.0000e+00
</event>
<event>
 6      1 +1.4834189e-01 1.05671200e+04 7.81653100e-03 6.90557800e-02
  1000022 -1    0    0    0    0 +0.0000000000e+00 +0.0000000000e+00 +4.4721471353e+01 1.0000100000e+04 1.0000000000e+04 0.0000e+00 -1.0000e+00
  1000022 -1    0    0    0    0 -0.0000000000e+00 -0.0000000000e+00 -4.4721471353e+01 1.0000100000e+04 1.0000000000e+04 0.0000e+00 -1.0000e+00
      -24  1    1    2    0    0 -6.5624406599e+02 +3.7998752540e+03 -3.3401647566e+03 5.1022329908e+03 7.9829010000e+01 0.0000e+00 1.0000e+00
       24  1    1    2    0    0 +8.0445574674e+02 -1.8349290531e+03 +2.0663783400e+03 2.8793064778e+03 7.9829010000e+01 0.0000e+00 1.0000e+00
       22  1    1    2    0    0 -3.4843263801e+03 -5.1656259243e+02 -4.1782303929e+03 5.4648857675e+03 0.0000000000e+00 0.0000e+00 1.0000e+00
       22  1    1    2    0    0 +3.3361146994e+03 -1.4483836085e+03 +5.4520168095e+03 6.5537747639e+03 0.0000000000e+00 0.0000e+00 1.0000e+00
</event>
<event>
 6      1 +1.4834189e-01 1.00111100e+04 7.81653100e-03 6.93805500e-02
  1000022 -1    0    0    0    0 +0.0000000000e+00 +0.0000000000e+00 +4.4721471353e+01 1.0000100000e+04 1.0000000000e+04 0.0000e+00 1.0000e+00
  1000022 -1    0    0    0    0 -0.0000000000e+00 -0.0000000000e+00 -4.4721471353e+01 1.0000100000e+04 1.0000000000e+04 0.0000e+00 1.0000e+00
      -24  1    1    2    0    0 +1.3352608484e+03 +9.5897373035e+03 -2.1720035549e+03 9.9232028699e+03 7.9829010000e+01 0.0000e+00 1.0000e+00
       24  1    1    2    0    0 +1.6328653985e+02 -6.8101549296e+02 +2.0291875681e+02 7.3348025771e+02 7.9829010000e+01 0.0000e+00 -1.0000e+00
       22  1    1    2    0    0 -3.5986699156e+01 +2.8229365706e+01 -4.7420855070e+01 6.5883815159e+01 0.0000000000e+00 0.0000e+00 1.0000e+00
       22  1    1    2    0    0 -1.4625606891e+03 -8.9369511763e+03 +2.0165056531e+03 9.2776330573e+03 0.0000000000e+00 0.0000e+00 1.0000e+00
</event>
<event>
 6      1 +1.4834189e-01 1.00769400e+04 7.81653100e-03 6.93410100e-02
  1000022 -1    0    0    0    0 +0.0000000000e+00 +0.0000000000e+00 +4.4721471353e+01 1.0000100000e+04 1.0000000000e+04 0.0000e+00 -1.0000e+00
  1000022 -1    0    0    0    0 -0.0000000000e+00 -0.0000000000e+00 -4.4721471353e+01 1.0000100000e+04 1.0000000000e+04 0.0000e+00 -1.0000e+00
      -24  1    1    2    0    0 +1.7808315849e+03 +1.7026492548e+03 -7.7224966724e+02 2.5832378593e+03 7.9829010000e+01 0.0000e+00 1.0000e+00
       24  1    1    2    0    0 -6.4235337269e+03 -6.8456499044e+03 +3.2155967651e+03 9.9232627386e+03 7.9829010000e+01 0.0000e+00 -1.0000e+00
       22  1    1    2    0    0 +4.5520550003e+03 +4.9199164167e+03 -2.6183682661e+03 7.1960151924e+03 0.0000000000e+00 0.0000e+00 -1.0000e+00
       22  1    1    2    0    0 +9.0647141696e+01 +2.2308423291e+02 +1.7502116831e+02 2.9768420957e+02 0.0000000000e+00 0.0000e+00 1.0000e+00
</event>
<event>
 6      1 +1.4834189e-01 1.00710700e+04 7.81653100e-03 6.93445200e-02
  1000022 -1    0    0    0    0 +0.0000000000e+00 +0.0000000000e+00 +4.4721471353e+01 1.0000100000e+04 1.0000000000e+04 0.0000e+00 -1.0000e+00
  1000022 -1    0    0    0    0 -0.0000000000e+00 -0.0000000000e+00 -4.4721471353e+01 1.0000100000e+04 1.0000000000e+04 0.0000e+00 -1.0000e+00
      -24  1    1    2    0    0 +2.1522009895e+02 -1.3442691573e+01 -3.9176523211e+02 4.5426100964e+02 7.9829010000e+01 0.0000e+00 -1.0000e+00
       24  1    1    2    0    0 -4.1835928604e+03 -6.6131146349e+03 +4.3434887827e+03 8.9503073619e+03 7.9829010000e+01 0.0000e+00 1.0000e+00
       22  1    1    2    0    0 +4.3872217338e+03 +7.4917829920e+03 -4.1362385326e+03 9.6168080016e+03 0.0000000000e+00 0.0000e+00 1.0000e+00
       22  1    1    2    0    0 -4.1884897235e+02 -8.6522566554e+02 +1.8451498204e+02 9.7882362689e+02 0.0000000000e+00 0.0000e+00 -1.0000e+00
</event>
<event>
 6      1 +1.4834189e-01 1.01689300e+04 7.81653100e-03 6.92862500e-02
  1000022 -1    0    0    0    0 +0.0000000000e+00 +0.0000000000e+00 +4.4721471353e+01 1.0000100000e+04 1.0000000000e+04 0.0000e+00 1.0000e+00
  1000022 -1    0    0    0    0 -0.0000000000e+00 -0.0000000000e+00 -4.4721471353e+01 1.0000100000e+04 1.0000000000e+04 0.0000e+00 1.0000e+00
      -24  1    1    2    0    0 +3.4389149152e+02 +2.2961656514e+02 -9.7630665369e+03 9.7721454144e+03 7.9829010000e+01 0.0000e+00 1.0000e+00
       24  1    1    2    0    0 +9.2605447543e+01 -8.5922338486e+02 +9.0204794057e+03 9.0621334118e+03 7.9829010000e+01 0.0000e+00 1.0000e+00
       22  1    1    2    0    0 -4.4795250397e+02 +6.2016855542e+02 +7.9982334384e+02 1.1067916987e+03 0.0000000000e+00 0.0000e+00 1.0000e+00
       22  1    1    2    0    0 +1.1455564903e+01 +9.4382642908e+00 -5.7236212559e+01 5.9129475122e+01 0.0000000000e+00 0.0000e+00 1.0000e+00
</event>
<event>
 6      1 +1.4834189e-01 1.00162100e+04 7.81653100e-03 6.93774800e-02
  1000022 -1    0    0    0    0 +0.0000000000e+00 +0.0000000000e+00 +4.4721471353e+01 1.0000100000e+04 1.0000000000e+04 0.0000e+00 -1.0000e+00
  1000022 -1    0    0    0    0 -0.0000000000e+00 -0.0000000000e+00 -4.4721471353e+01 1.0000100000e+04 1.0000000000e+04 0.0000e+00 -1.0000e+00
      -24  1    1    2    0    0 -1.3781158530e+03 +2.6103058722e+01 +5.8579681569e+02 1.4998050720e+03 7.9829010000e+01 0.0000e+00 -1.0000e+00
       24  1    1    2    0    0 +9.6069019143e+03 +2.2641051320e+02 -2.1504293819e+03 9.8475654509e+03 7.9829010000e+01 0.0000e+00 -1.0000e+00
       22  1    1    2    0    0 +1.3357514394e+02 +1.6827576001e+00 -2.7681978992e+01 1.3642376153e+02 0.0000000000e+00 0.0000e+00 1.0000e+00
       22  1    1    2    0    0 -8.3623612053e+03 -2.5419632952e+02 +1.5923145452e+03 8.5164057156e+03 0.0000000000e+00 0.0000e+00 -1.0000e+00
</event>
<event>
 6      1 +1.4834189e-01 1.00843200e+04 7.81653100e-03 6.93365900e-02
  1000022 -1    0    0    0    0 +0.0000000000e+00 +0.0000000000e+00 +4.4721471353e+01 1.0000100000e+04 1.0000000000e+04 0.0000e+00 -1.0000e+00
  1000022 -1    0    0    0    0 -0.0000000000e+00 -0.0000000000e+00 -4.4721471353e+01 1.0000100000e+04 1.0000000000e+04 0.0000e+00 -1.0000e+00
      -24  1    1    2    0    0 -1.9437649132e+03 +6.2952407043e+03 -2.2849912787e+03 6.9739397314e+03 7.9829010000e+01 0.0000e+00 1.0000e+00
       24  1    1    2    0    0 +3.0079490128e+03 -9.0270194395e+03 +2.7898721904e+03 9.9158759943e+03 7.9829010000e+01 0.0000e+00 1.0000e+00
       22  1    1    2    0    0 -2.0285401903e+02 +3.2452013147e+01 +7.4152638563e+01 2.1840673067e+02 0.0000000000e+00 0.0000e+00 1.0000e+00
       22  1    1    2    0    0 -8.6133008061e+02 +2.6993267220e+03 -5.7903355023e+02 2.8919775436e+03 0.0000000000e+00 0.0000e+00 -1.0000e+00
</event>
<event>
 6      1 +1.4834189e-01 1.01914200e+04 7.81653100e-03 6.92729500e-02
  1000022 -1    0    0    0    0 +0.0000000000e+00 +0.0000000000e+00 +4.4721471353e+01 1.0000100000e+04 1.0000000000e+04 0.0000e+00 1.0000e+00
  1000022 -1    0    0    0    0 -0.0000000000e+00 -0.0000000000e+00 -4.4721471353e+01 1.0000100000e+04 1.0000000000e+04 0.0000e+00 1.0000e+00
      -24  1    1    2    0    0 -8.8225531588e+03 +1.2267038024e+03 +1.7485906395e+03 9.0777854323e+03 7.9829010000e+01 0.0000e+00 1.0000e+00
       24  1    1    2    0    0 +7.6784622151e+03 -7.9602545561e+02 -2.2771452912e+03 8.0488633895e+03 7.9829010000e+01 0.0000e+00 1.0000e+00
       22  1    1    2    0    0 +1.6896180850e+03 -2.4856436139e+02 -4.2508415613e+02 1.7599119452e+03 0.0000000000e+00 0.0000e+00 -1.0000e+00
       22  1    1    2    0    0 -5.4552714133e+02 -1.8211398538e+02 +9.5363880781e+02 1.1136392330e+03 0.0000000000e+00 0.0000e+00 -1.0000e+00
</event>
<event>
 6      1 +1.4834189e-01 1.00381600e+04 7.81653100e-03 6.93642600e-02
  1000022 -1    0    0    0    0 +0.0000000000e+00 +0.0000000000e+00 +4.4721471353e+01 1.0000100000e+04 1.0000000000e+04 0.0000e+00 -1.0000e+00
  1000022 -1    0    0    0    0 -0.0000000000e+00 -0.0000000000e+00 -4.4721471353e+01 1.0000100000e+04 1.0000000000e+04 0.0000e+00 -1.0000e+00
      -24  1    1    2    0    0 +3.0234914029e+03 -7.0722153894e+03 +6.2059548007e+03 9.8832170085e+03 7.9829010000e+01 0.0000e+00 -1.0000e+00
       24  1    1    2    0    0 -3.1468768156e+03 +7.0725559366e+03 -6.2699257360e+03 9.9620390772e+03 7.9829010000e+01 0.0000e+00 -1.0000e+00
       22  1    1    2    0    0 +1.1083966404e+02 +1.2800776676e+01 +7.4293538029e+01 1.3404783027e+02 0.0000000000e+00 0.0000e+00 -1.0000e+00
       22  1    1    2    0    0 +1.2545748673e+01 -1.3141323878e+01 -1.0322602743e+01 2.0896084093e+01 0.0000000000e+00 0.0000e+00 1.0000e+00
</event>
<event>
 6      1 +1.4834189e-01 1.00292000e+04 7.81653100e-03 6.93696600e-02
  1000022 -1    0    0    0    0 +0.0000000000e+00 +0.0000000000e+00 +4.4721471353e+01 1.0000100000e+04 1.0000000000e+04 0.0000e+00 1.0000e+00
  1000022 -1    0    0    0    0 -0.0000000000e+00 -0.0000000000e+00 -4.4721471353e+01 1.0000100000e+04 1.0000000000e+04 0.0000e+00 1.0000e+00
      -24  1    1    2    0    0 +7.4855215294e+02 +5.6024891265e+03 +8.2137891750e+03 9.9710039625e+03 7.9829010000e+01 0.0000e+00 -1.0000e+00
       24  1    1    2    0    0 -7.0715553753e+01 -6.0323250052e+02 -6.9799546972e+02 9.2868750708e+02 7.9829010000e+01 0.0000e+00 0.0000e+00
       22  1    1    2    0    0 +3.1400055135e+01 +2.6904523213e+01 -1.4649937931e+02 1.5222314203e+02 0.0000000000e+00 0.0000e+00 -1.0000e+00
       22  1    1    2    0    0 -7.0923665432e+02 -5.0261611492e+03 -7.3692943259e+03 8.9482853884e+03 0.0000000000e+00 0.0000e+00 -1.0000e+00
</event>
<event>
 6      1 +1.4834189e-01 1.00067800e+04 7.81653100e-03 6.93831600e-02
  1000022 -1    0    0    0    0 +0.0000000000e+00 +0.0000000000e+00 +4.4721471353e+01 1.0000100000e+04 1.0000000000e+04 0.0000e+00 1.0000e+00
  1000022 -1    0    0    0    0 -0.0000000000e+00 -0.0000000000e+00 -4.4721471353e+01 1.0000100000e+04 1.0000000000e+04 0.0000e+00 1.0000e+00
      -24  1    1    2    0    0 +9.1946199312e+02 -4.6813570598e+00 +5.4959386183e+02 1.0741779907e+03 7.9829010000e+01 0.0000e+00 0.0000e+00
       24  1    1    2    0    0 -6.2935416135e+03 +1.0277058722e+03 -4.6007662637e+03 7.8637311935e+03 7.9829010000e+01 0.0000e+00 -1.0000e+00
       22  1    1    2    0    0 +7.0553046086e+03 -1.4924889680e+03 +5.2712862090e+03 8.9325978717e+03 0.0000000000e+00 0.0000e+00 -1.0000e+00
       22  1    1    2    0    0 -1.6812249883e+03 +4.6946445287e+02 -1.2201138071e+03 2.1296929441e+03 0.0000000000e+00 0.0000e+00 -1.0000e+00
</event>
<event>
 6      1 +1.4834189e-01 1.01088600e+04 7.81653100e-03 6.93219400e-02
  1000022 -1    0    0    0    0 +0.0000000000e+00 +0.0000000000e+00 +4.4721471353e+01 1.0000100000e+04 1.0000000000e+04 0.0000e+00 1.0000e+00
  1000022 -1    0    0    0    0 -0.0000000000e+00 -0.0000000000e+00 -4.4721471353e+01 1.0000100000e+04 1.0000000000e+04 0.0000e+00 1.0000e+00
      -24  1    1    2    0    0 +1.5379186092e+03 +4.0669946597e+03 -8.8402607359e+03 9.8520161266e+03 7.9829010000e+01 0.0000e+00 -1.0000e+00
       24  1    1    2    0    0 -1.7935385374e+03 -3.9970928244e+03 +8.8029719473e+03 9.8332201901e+03 7.9829010000e+01 0.0000e+00 -1.0000e+00
       22  1    1    2    0    0 +2.5028863062e+02 -9.2662622376e+01 +6.8906360828e+01 2.7564260695e+02 0.0000000000e+00 0.0000e+00 1.0000e+00
       22  1    1    2    0    0 +5.3312975113e+00 +2.2760787082e+01 -3.1617572286e+01 3.9321076270e+01 0.0000000000e+00 0.0000e+00 -1.0000e+00
</event>
<event>
 6      1 +1.4834189e-01 1.02752500e+04 7.81653100e-03 6.92236900e-02
  1000022 -1    0    0    0    0 +0.0000000000e+00 +0.0000000000e+00 +4.4721471353e+01 1.0000100000e+04 1.0000000000e+04 0.0000e+00 -1.0000e+00
  1000022 -1    0    0    0    0 -0.0000000000e+00 -0.0000000000e+00 -4.4721471353e+01 1.0000100000e+04 1.0000000000e+04 0.0000e+00 -1.0000e+00
      -24  1    1    2    0    0 -4.2118783187e+03 +7.3483700341e+03 +4.4653662119e+03 9.5751934292e+03 7.9829010000e+01 0.0000e+00 1.0000e+00
       24  1    1    2    0    0 +3.6778538648e+03 -7.0129761164e+03 -5.0144439238e+03 9.3733379111e+03 7.9829010000e+01 0.0000e+00 1.0000e+00
       22  1    1    2    0    0 +6.0886351026e+02 -4.5064140202e+02 +4.8954034539e+02 9.0191030436e+02 0.0000000000e+00 0.0000e+00 -1.0000e+00
       22  1    1    2    0    0 -7.4839056338e+01 +1.1524748430e+02 +5.9537366496e+01 1.4975835536e+02 0.0000000000e+00 0.0000e+00 1.0000e+00
</event>
<event>
 6      1 +1.4834189e-01 1.00018700e+04 7.81653100e-03 6.93861300e-02
  1000022 -1    0    0    0    0 +0.0000000000e+00 +0.0000000000e+00 +4.4721471353e+01 1.0000100000e+04 1.0000000000e+04 0.0000e+00 1.0000e+00
  1000022 -1    0    0    0    0 -0.0000000000e+00 -0.0000000000e+00 -4.4721471353e+01 1.0000100000e+04 1.0000000000e+04 0.0000e+00 1.0000e+00
      -24  1    1    2    0    0 +4.0056150853e+03 +8.2090340995e+03 +3.9825845539e+03 9.9649659035e+03 7.9829010000e+01 0.0000e+00 1.0000e+00
       24  1    1    2    0    0 -3.9458527673e+03 -8.0214323188e+03 -3.9291819675e+03 9.7651407624e+03 7.9829010000e+01 0.0000e+00 1.0000e+00
       22  1    1    2    0    0 -7.4393551045e+01 -2.1483722372e+02 -6.5953439871e+01 2.3672619070e+02 0.0000000000e+00 0.0000e+00 -1.0000e+00
       22  1    1    2    0    0 +1.4631232996e+01 +2.7235442984e+01 +1.2550853418e+01 3.3367143346e+01 0.0000000000e+00 0.0000e+00 -1.0000e+00
</event>
<event>
 6      1 +1.4834189e-01 1.00513900e+04 7.81653100e-03 6.93563200e-02
  1000022 -1    0    0    0    0 +0.0000000000e+00 +0.0000000000e+00 +4.4721471353e+01 1.0000100000e+04 1.0000000000e+04 0.0000e+00 -1.0000e+00
  1000022 -1    0    0    0    0 -0.0000000000e+00 -0.0000000000e+00 -4.4721471353e+01 1.0000100000e+04 1.0000000000e+04 0.0000e+00 -1.0000e+00
      -24  1    1    2    0    0 +2.7628967942e+03 -9.4537652386e+03 -8.1369915939e+01 9.8498867819e+03 7.9829010000e+01 0.0000e+00 1.0000e+00
       24  1    1    2    0    0 -1.5833126593e+03 +6.0252084648e+03 -6.2836205022e+02 6.2618869008e+03 7.9829010000e+01 0.0000e+00 1.0000e+00
       22  1    1    2    0    0 -1.1918026468e+03 +3.5267173806e+03 +7.0866018109e+02 3.7895023794e+03 0.0000000000e+00 0.0000e+00 1.0000e+00
       22  1    1    2    0    0 +1.2218511926e+01 -9.8160606744e+01 +1.0717850692e+00 9.8923937818e+01 0.0000000000e+00 0.0000e+00 -1.0000e+00
</event>
<event>
 6      1 +1.4834189e-01 1.00183700e+04 7.81653100e-03 6.93761800e-02
  1000022 -1    0    0    0    0 +0.0000000000e+00 +0.0000000000e+00 +4.4721471353e+01 1.0000100000e+04 1.0000000000e+04 0.0000e+00 -1.0000e+00
  1000022 -1    0    0    0    0 -0.0000000000e+00 -0.0000000000e+00 -4.4721471353e+01 1.0000100000e+04 1.0000000000e+04 0.0000e+00 -1.0000e+00
      -24  1    1    2    0    0 -5.1132843626e+03 +3.3902928364e+03 -1.9725118735e+03 6.4449156901e+03 7.9829010000e+01 0.0000e+00 -1.0000e+00
       24  1    1    2    0    0 +7.6331994066e+03 -5.4693916147e+03 +3.3838767178e+03 9.9818321028e+03 7.9829010000e+01 0.0000e+00 -1.0000e+00
       22  1    1    2    0    0 -2.4785572006e+03 +2.0438743993e+03 -1.4293784795e+03 3.5162183087e+03 0.0000000000e+00 0.0000e+00 -1.0000e+00
       22  1    1    2    0    0 -4.1357843436e+01 +3.5224378920e+01 +1.8013635231e+01 5.7233898506e+01 0.0000000000e+00 0.0000e+00 1.0000e+00
</event>
<event>
 6      1 +1.4834189e-01 1.00173700e+04 7.81653100e-03 6.93767800e-02
  1000022 -1    0    0    0    0 +0.0000000000e+00 +0.0000000000e+00 +4.4721471353e+01 1.0000100000e+04 1.0000000000e+04 0.0000e+00 -1.0000e+00
  1000022 -1    0    0    0    0 -0.0000000000e+00 -0.0000000000e+00 -4.4721471353e+01 1.0000100000e+04 1.0000000000e+04 0.0000e+00 -1.0000e+00
      -24  1    1    2    0    0 +1.0340081424e+02 +4.3635461339e+01 -3.5353268724e+00 1.3777137310e+02 7.9829010000e+01 0.0000e+00 0.0000e+00
       24  1    1    2    0    0 -9.3118144347e+03 -1.5398059925e+03 -3.0287304935e+03 9.9126420108e+03 7.9829010000e+01 0.0000e+00 -1.0000e+00
       22  1    1    2    0    0 +9.2757747556e+03 +1.5063643585e+03 +3.0491500112e+03 9.8795974963e+03 0.0000000000e+00 0.0000e+00 -1.0000e+00
       22  1    1    2    0    0 -6.7361135139e+01 -1.0193827340e+01 -1.6884190834e+01 7.0189119835e+01 0.0000000000e+00 0.0000e+00 1.0000e+00
</event>
<event>
 6      1 +1.4834189e-01 1.00010500e+04 7.81653100e-03 6.93866200e-02
  1000022 -1    0    0    0    0 +0.0000000000e+00 +0.0000000000e+00 +4.4721471353e+01 1.0000100000e+04 1.0000000000e+04 0.0000e+00 1.0000e+00
  1000022 -1    0    0    0    0 -0.0000000000e+00 -0.0000000000e+00 -4.4721471353e+01 1.0000100000e+04 1.0000000000e+04 0.0000e+00 1.0000e+00
      -24  1    1    2    0    0 -7.7820648531e+03 -3.6951659956e+03 -1.7005680799e+03 8.7814058999e+03 7.9829010000e+01 0.0000e+00 -1.0000e+00
       24  1    1    2    0    0 +8.8083613761e+03 +4.1353208448e+03 +2.0320330281e+03 9.9410079730e+03 7.9829010000e+01 0.0000e+00 -1.0000e+00
       22  1    1    2    0    0 +5.5773554871e+01 +1.8399961473e+01 -1.2464299766e+01 6.0038377508e+01 0.0000000000e+00 0.0000e+00 -1.0000e+00
       22  1    1    2    0    0 -1.0820700779e+03 -4.5855481069e+02 -3.1900064852e+02 1.2177477496e+03 0.0000000000e+00 0.0000e+00 1.0000e+00
</event>
<event>
 6      1 +1.4834189e-01 1.00040500e+04 7.81653100e-03 6.93848100e-02
  1000022 -1    0    0    0    0 +0.0000000000e+00 +0.0000000000e+00 +4.4721471353e+01 1.0000100000e+04 1.0000000000e+04 0.0000e+00 1.0000e+00
  1000022 -1    0    0    0    0 -0.0000000000e+00 -0.0000000000e+00 -4.4721471353e+01 1.0000100000e+04 1.0000000000e+04 0.0000e+00 1.0000e+00
      -24  1    1    2    0    0 -1.4755994139e+03 -1.7864845693e+03 +1.2903109371e+03 2.6533367166e+03 7.9829010000e+01 0.0000e+00 0.0000e+00
       24  1    1    2    0    0 +5.7318220611e+03 +6.5734635161e+03 -4.8839054397e+03 9.9961548484e+03 7.9829010000e+01 0.0000e+00 -1.0000e+00
       22  1    1    2    0    0 +3.9502713404e+00 -1.4765384432e+01 +9.1519536277e+00 1.7815147384e+01 0.0000000000e+00 0.0000e+00 1.0000e+00
       22  1    1    2    0    0 -4.2601729186e+03 -4.7722135624e+03 +3.5844425490e+03 7.3328932877e+03 0.0000000000e+00 0.0000e+00 -1.0000e+00
</event>
<event>
 6      1 +1.4834189e-01 1.00376200e+04 7.81653100e-03 6.93645900e-02
  1000022 -1    0    0    0    0 +0.0000000000e+00 +0.0000000000e+00 +4.4721471353e+01 1.0000100000e+04 1.0000000000e+04 0.0000e+00 -1.0000e+00
  1000022 -1    0    0    0    0 -0.0000000000e+00 -0.0000000000e+00 -4.4721471353e+01 1.0000100000e+04 1.0000000000e+04 0.0000e+00 -1.0000e+00
      -24  1    1    2    0    0 -8.7718755145e+03 -1.1592011975e+03 -4.5513742804e+03 9.9504235070e+03 7.9829010000e+01 0.0000e+00 -1.0000e+00
       24  1    1    2    0    0 +8.7941766241e+03 +1.0921052603e+03 +4.4856928917e+03 9.9326758623e+03 7.9829010000e+01 0.0000e+00 -1.0000e+00
       22  1    1    2    0    0 -6.9925902675e+00 -7.4926182385e+00 -6.5373080395e+00 1.2156152480e+01 0.0000000000e+00 0.0000e+00 1.0000e+00
       22  1    1    2    0    0 -1.5308519353e+01 +7.4588555369e+01 +7.2218696681e+01 1.0494447821e+02 0.0000000000e+00 0.0000e+00 -1.0000e+00
</event>
<event>
 6      1 +1.4834189e-01 1.00036200e+04 7.81653100e-03 6.93850700e-02
  1000022 -1    0    0    0    0 +0.0000000000e+00 +0.0000000000e+00 +4.4721471353e+01 1.0000100000e+04 1.0000000000e+04 0.0000e+00 -1.0000e+00
  1000022 -1    0    0    0    0 -0.0000000000e+00 -0.0000000000e+00 -4.4721471353e+01 1.0000100000e+04 1.0000000000e+04 0.0000e+00 -1.0000e+00
      -24  1    1    2    0    0 -1.4317175382e+03 +5.2316589110e+03 -8.3294879989e+03 9.9401616217e+03 7.9829010000e+01 0.0000e+00 1.0000e+00
       24  1    1    2    0    0 +1.4482103517e+03 -5.2549375922e+03 +8.3745962551e+03 9.9925931283e+03 7.9829010000e+01 0.0000e+00 1.0000e+00
       22  1    1    2    0    0 -8.9193428127e+00 -5.9686936355e+00 +2.5375896597e+00 1.1028115941e+01 0.0000000000e+00 0.0000e+00 1.0000e+00
       22  1    1    2    0    0 -7.5734706343e+00 +2.9247374806e+01 -4.7645845830e+01 5.6417134058e+01 0.0000000000e+00 0.0000e+00 1.0000e+00
</event>
<event>
 6      1 +1.4834189e-01 1.00612000e+04 7.81653100e-03 6.93504300e-02
  1000022 -1    0    0    0    0 +0.0000000000e+00 +0.0000000000e+00 +4.4721471353e+01 1.0000100000e+04 1.0000000000e+04 0.0000e+00 -1.0000e+00
  1000022 -1    0    0    0    0 -0.0000000000e+00 -0.0000000000e+00 -4.4721471353e+01 1.0000100000e+04 1.0000000000e+04 0.0000e+00 -1.0000e+00
      -24  1    1    2    0    0 -8.1752680560e+03 +5.5927670534e+03 -3.5944299500e+02 9.9120947856e+03 7.9829010000e+01 0.0000e+00 -1.0000e+00
       24  1    1    2    0    0 +7.9521884102e+03 -5.6816094071e+03 +4.4624252591e+02 9.7838382565e+03 7.9829010000e+01 0.0000e+00 -1.0000e+00
       22  1    1    2    0    0 +2.4646543277e+02 +8.1365769809e+01 -9.7799962700e+01 2.7736335510e+02 0.0000000000e+00 0.0000e+00 1.0000e+00
       22  1    1    2    0    0 -2.3385786976e+01 +7.4765839016e+00 +1.1000431786e+01 2.6903602710e+01 0.0000000000e+00 0.0000e+00 1.0000e+00
</event>
<event>
 6      1 +1.4834189e-01 1.00893800e+04 7.81653100e-03 6.93335700e-02
  1000022 -1    0    0    0    0 +0.0000000000e+00 +0.0000000000e+00 +4.4721471353e+01 1.0000100000e+04 1.0000000000e+04 0.0000e+00 -1.0000e+00
  1000022 -1    0    0    0    0 -0.0000000000e+00 -0.0000000000e+00 -4.4721471353e+01 1.0000100000e+04 1.0000000000e+04 0.0000e+00 -1.0000e+00
      -24  1    1    2    0    0 -8.9957253240e+03 -3.5658717052e+03 -1.8057949607e+03 9.8440735081e+03 7.9829010000e+01 0.0000e+00 1.0000e+00
       24  1    1    2    0    0 +9.5921038392e+02 +7.6937242923e+02 -2.7612787502e+02 1.2627896775e+03 7.9829010000e+01 0.0000e+00 -1.0000e+00
       22  1    1    2    0    0 +8.0959194259e+03 +2.8236987354e+03 +2.0955849239e+03 8.8265883598e+03 0.0000000000e+00 0.0000e+00 1.0000e+00
       22  1    1    2    0    0 -5.9404485896e+01 -2.7199459473e+01 -1.3662088198e+01 6.6748454619e+01 0.0000000000e+00 0.0000e+00 1.0000e+00
</event>
<event>
 6      1 +1.4834189e-01 1.00113200e+04 7.81653100e-03 6.93804200e-02
  1000022 -1    0    0    0    0 +0.0000000000e+00 +0.0000000000e+00 +4.4721471353e+01 1.0000100000e+04 1.0000000000e+04 0.0000e+00 1.0000e+00
  1000022 -1    0    0    0    0 -0.0000000000e+00 -0.0000000000e+00 -4.4721471353e+01 1.0000100000e+04 1.0000000000e+04 0.0000e+00 1.0000e+00
      -24  1    1    2    0    0 -8.2445430386e+03 +6.8313617782e+02 +5.5568748234e+03 9.9661625226e+03 7.9829010000e+01 0.0000e+00 -1.0000e+00
       24  1    1    2    0    0 +1.0605930267e+03 -1.1564460610e+02 -9.8831834147e+02 1.4564947848e+03 7.9829010000e+01 0.0000e+00 1.0000e+00
       22  1    1    2    0    0 +7.2007232566e+03 -5.6813467200e+02 -4.5838657401e+03 8.5548242265e+03 0.0000000000e+00 0.0000e+00 -1.0000e+00
       22  1    1    2    0    0 -1.6773244723e+01 +6.4310027757e-01 +1.5309258192e+01 2.2718466121e+01 0.0000000000e+00 0.0000e+00 1.0000e+00
</event>
<event>
 6      1 +1.4834189e-01 1.00198300e+04 7.81653100e-03 6.93752900e-02
  1000022 -1    0    0    0    0 +0.0000000000e+00 +0.0000000000e+00 +4.4721471353e+01 1.0000100000e+04 1.0000000000e+04 0.0000e+00 -1.0000e+00
  1000022 -1    0    0    0    0 -0.0000000000e+00 -0.0000000000e+00 -4.4721471353e+01 1.0000100000e+04 1.0000000000e+04 0.0000e+00 -1.0000e+00
      -24  1    1    2    0    0 +3.2237335312e+02 +8.1162145815e+02 -1.3751782176e+02 8.8765860119e+02 7.9829010000e+01 0.0000e+00 1.0000e+00
       24  1    1    2    0    0 -1.2201674962e+03 -9.4699161542e+03 +2.8436520645e+03 9.9629739747e+03 7.9829010000e+01 0.0000e+00 -1.0000e+00
       22  1    1    2    0    0 -6.4955548564e+00 -1.5949380313e+01 +2.4373387051e+00 1.7392975169e+01 0.0000000000e+00 0.0000e+00 1.0000e+00
       22  1    1    2    0    0 +9.0428969795e+02 +8.6742440763e+03 -2.7085715815e+03 9.1321744489e+03 0.0000000000e+00 0.0000e+00 -1.0000e+00
</event>
<event>
 6      1 +1.4834189e-01 1.00009000e+04 7.81653100e-03 6.93867100e-02
  1000022 -1    0    0    0    0 +0.0000000000e+00 +0.0000000000e+00 +4.4721471353e+01 1.0000100000e+04 1.0000000000e+04 0.0000e+00 1.0000e+00
  1000022 -1    0    0    0    0 -0.0000000000e+00 -0.0000000000e+00 -4.4721471353e+01 1.0000100000e+04 1.0000000000e+04 0.0000e+00 1.0000e+00
      -24  1    1    2    0    0 +3.1206115666e+03 +4.3608445841e+03 -3.4147212421e+03 6.3578200563e+03 7.9829010000e+01 0.0000e+00 1.0000e+00
       24  1    1    2    0    0 -4.9607824937e+03 -6.8338983332e+03 +5.3542652020e+03 9.9993028708e+03 7.9829010000e+01 0.0000e+00 1.0000e+00
       22  1    1    2    0    0 +1.8301383543e+03 +2.4682552693e+03 -1.9322186196e+03 3.6297602213e+03 0.0000000000e+00 0.0000e+00 -1.0000e+00
       22  1    1    2    0    0 +1.0032572899e+01 +4.7984797259e+00 -7.3253402540e+00 1.3316851598e+01 0.0000000000e+00 0.0000e+00 1.0000e+00
</event>
<event>
 6      1 +1.4834189e-01 1.04208500e+04 7.81653100e-03 6.91392400e-02
  1000022 -1    0    0    0    0 +0.0000000000e+00 +0.0000000000e+00 +4.4721471353e+01 1.0000100000e+04 1.0000000000e+04 0.0000e+00 -1.0000e+00
  1000022 -1    0    0    0    0 -0.0000000000e+00 -0.0000000000e+00 -4.4721471353e+01 1.0000100000e+04 1.0000000000e+04 0.0000e+00 -1.0000e+00
      -24  1    1    2    0    0 -8.9023548606e+03 -6.0506585823e+02 -3.4841856760e+03 9.5793501477e+03 7.9829010000e+01 0.0000e+00 1.0000e+00
       24  1    1    2    0    0 +8.3723980455e+03 +1.3789584320e+03 +2.1893447005e+03 8.7634569821e+03 7.9829010000e+01 0.0000e+00 1.0000e+00
       22  1    1    2    0    0 +5.5994202903e+02 -5.2115090713e+02 +1.0849434070e+03 1.3274921997e+03 0.0000000000e+00 0.0000e+00 1.0000e+00
       22  1    1    2    0    0 -2.9985213861e+01 -2.5274166667e+02 +2.0989756848e+02 3.2990067046e+02 0.0000000000e+00 0.0000e+00 1.0000e+00
</event>
<event>
 6      1 +1.4834189e-01 1.00088000e+04 7.81653100e-03 6.93819500e-02
  1000022 -1    0    0    0    0 +0.0000000000e+00 +0.0000000000e+00 +4.4721471353e+01 1.0000100000e+04 1.0000000000e+04 0.0000e+00 -1.0000e+00
  1000022 -1    0    0    0    0 -0.0000000000e+00 -0.0000000000e+00 -4.4721471353e+01 1.0000100000e+04 1.0000000000e+04 0.0000e+00 -1.0000e+00
      -24  1    1    2    0    0 +2.3956624932e+03 +4.4305708134e+03 +7.8485097304e+03 9.3260192029e+03 7.9829010000e+01 0.0000e+00 -1.0000e+00
       24  1    1    2    0    0 -2.6085777110e+03 -4.7159699766e+03 -8.4128897796e+03 9.9914031852e+03 7.9829010000e+01 0.0000e+00 -1.0000e+00
       22  1    1    2    0    0 +5.0841171956e+01 +1.8852342001e+02 +2.7624682357e+02 3.3828717415e+02 0.0000000000e+00 0.0000e+00 1.0000e+00
       22  1    1    2    0    0 +1.6207404585e+02 +9.6875743179e+01 +2.8813322570e+02 3.4449043776e+02 0.0000000000e+00 0.0000e+00 -1.0000e+00
</event>
<event>
 6      1 +1.4834189e-01 1.02576800e+04 7.81653100e-03 6.92339700e-02
  1000022 -1    0    0    0    0 +0.0000000000e+00 +0.0000000000e+00 +4.4721471353e+01 1.0000100000e+04 1.0000000000e+04 0.0000e+00 -1.0000e+00
  1000022 -1    0    0    0    0 -0.0000000000e+00 -0.0000000000e+00 -4.4721471353e+01 1.0000100000e+04 1.0000000000e+04 0.0000e+00 -1.0000e+00
      -24  1    1    2    0    0 -9.3664103404e+02 -7.4197260078e+03 -6.2434535068e+03 9.7425209684e+03 7.9829010000e+01 0.0000e+00 -1.0000e+00
       24  1    1    2    0    0 +1.2461197892e+02 +6.2635284384e+03 +6.1428449714e+03 8.7742939122e+03 7.9829010000e+01 0.0000e+00 -1.0000e+00
       22  1    1    2    0    0 +1.1734349413e+01 +1.3730103647e+02 +1.2714505720e+02 1.8749702702e+02 0.0000000000e+00 0.0000e+00 -1.0000e+00
       22  1    1    2    0    0 +8.0029470571e+02 +1.0188965330e+03 -2.6536521799e+01 1.2958880923e+03 0.0000000000e+00 0.0000e+00 -1.0000e+00
</event>
<event>
 6      1 +1.4834189e-01 1.00022600e+04 7.81653100e-03 6.93858900e-02
  1000022 -1    0    0    0    0 +0.0000000000e+00 +0.0000000000e+00 +4.4721471353e+01 1.0000100000e+04 1.0000000000e+04 0.0000e+00 -1.0000e+00
  1000022 -1    0    0    0    0 -0.0000000000e+00 -0.0000000000e+00 -4.4721471353e+01 1.0000100000e+04 1.0000000000e+04 0.0000e+00 -1.0000e+00
      -24  1    1    2    0    0 +3.9795964303e+03 -6.3982586907e+02 +3.4671299890e+03 5.3173233795e+03 7.9829010000e+01 0.0000e+00 1.0000e+00
       24  1    1    2    0    0 -5.6995837950e+03 +1.3517935718e+03 -5.4304952628e+03 7.9880694018e+03 7.9829010000e+01 0.0000e+00 1.0000e+00
       22  1    1    2    0    0 +3.3359569442e+03 -9.5907280890e+02 +3.1400271413e+03 4.6806195995e+03 0.0000000000e+00 0.0000e+00 1.0000e+00
       22  1    1    2    0    0 -1.6159695795e+03 +2.4710510613e+02 -1.1766618675e+03 2.0141876193e+03 0.0000000000e+00 0.0000e+00 1.0000e+00
</event>
<event>
 6      1 +1.4834189e-01 1.08360900e+04 7.81653100e-03 6.89058000e-02
  1000022 -1    0    0    0    0 +0.0000000000e+00 +0.0000000000e+00 +4.4721471353e+01 1.0000100000e+04 1.0000000000e+04 0.0000e+00 1.0000e+00
  1000022 -1    0    0    0    0 -0.0000000000e+00 -0.0000000000e+00 -4.4721471353e+01 1.0000100000e+04 1.0000000000e+04 0.0000e+00 1.0000e+00
      -24  1    1    2    0    0 -1.5980017359e+03 -8.8727630061e+03 -1.6416203735e+03 9.1641051408e+03 7.9829010000e+01 0.0000e+00 1.0000e+00
       24  1    1    2    0    0 +2.5486297934e+03 +7.3971962359e+03 +2.9933961638e+03 8.3773993125e+03 7.9829010000e+01 0.0000e+00 1.0000e+00
       22  1    1    2    0    0 +1.9979136368e+00 +7.4304837669e+02 -1.4776442248e+02 7.5760095453e+02 0.0000000000e+00 0.0000e+00 -1.0000e+00
       22  1    1    2    0    0 -9.5262597108e+02 +7.3251839346e+02 -1.2040113678e+03 1.7010945922e+03 0.0000000000e+00 0.0000e+00 1.0000e+00
</event>
<event>
 6      1 +1.4834189e-01 9.95534400e+03 7.81653100e-03 6.94142900e-02
  1000022 -1    0    0    0    0 +0.0000000000e+00 +0.0000000000e+00 +4.4721471353e+01 1.0000100000e+04 1.0000000000e+04 0.0000e+00 -1.0000e+00
  1000022 -1    0    0    0    0 -0.0000000000e+00 -0.0000000000e+00 -4.4721471353e+01 1.0000100000e+04 1.0000000000e+04 0.0000e+00 -1.0000e+00
      -24  1    1    2    0    0 -4.5590504453e+01 -1.2919636822e+01 +1.0011863233e+01 9.3371940940e+01 7.9829010000e+01 0.0000e+00 1.0000e+00
       24  1    1    2    0    0 +5.7366283695e+03 -7.7727845387e+02 +6.2019096293e+03 8.4842868036e+03 7.9829010000e+01 0.0000e+00 1.0000e+00
       22  1    1    2    0    0 +9.4598324541e+02 -2.2491658047e+02 +1.1184157127e+03 1.4820004977e+03 0.0000000000e+00 0.0000e+00 1.0000e+00
       22  1    1    2    0    0 -6.6370211104e+03 +1.0151146712e+03 -7.3303372052e+03 9.9405407578e+03 0.0000000000e+00 0.0000e+00 1.0000e+00
</event>
<event>
 6      1 +1.4834189e-01 1.00040500e+04 7.81653100e-03 6.93848100e-02
  1000022 -1    0    0    0    0 +0.0000000000e+00 +0.0000000000e+00 +4.4721471353e+01 1.0000100000e+04 1.0000000000e+04 0.0000e+00 -1.0000e+00
  1000022 -1    0    0    0    0 -0.0000000000e+00 -0.0000000000e+00 -4.4721471353e+01 1.0000100000e+04 1.0000000000e+04 0.0000e+00 -1.0000e+00
      -24  1    1    2    0    0 -3.7060615693e+02 -2.3676546219e+02 -2.0016786979e+02 4.8974141603e+02 7.9829010000e+01 0.0000e+00 0.0000e+00
       24  1    1    2    0    0 +6.7728087359e+03 +6.5085532313e+03 +3.3304935191e+03 9.9664819816e+03 7.9829010000e+01 0.0000e+00 1.0000e+00
       22  1    1    2    0    0 +1.1753389198e+01 -9.4018820342e+00 +3.4415862887e+01 3.7563135674e+01 0.0000000000e+00 0.0000e+00 -1.0000e+00
       22  1    1    2    0    0 -6.4139559682e+03 -6.2623858871e+03 -3.1647415122e+03 9.5064134667e+03 0.0000000000e+00 0.0000e+00 1.0000e+00
</event>
<event>
 6      1 +1.4834189e-01 1.06843200e+04 7.81653100e-03 6.89898900e-02
  1000022 -1    0    0    0    0 +0.0000000000e+00 +0.0000000000e+00 +4.4721471353e+01 1.0000100000e+04 1.0000000000e+04 0.0000e+00 1.0000e+00
  1000022 -1    0    0    0    0 -0.0000000000e+00 -0.0000000000e+00 -4.4721471353e+01 1.0000100000e+04 1.0000000000e+04 0.0000e+00 1.0000e+00
      -24  1    1    2    0    0 -1.7887445873e+03 +4.4594778053e+03 +5.4662602200e+03 7.2782499928e+03 7.9829010000e+01 0.0000e+00 -1.0000e+00
       24  1    1    2    0    0 +7.4828928773e+02 -6.1390435670e+03 -3.9854946209e+03 7.3578755643e+03 7.9829010000e+01 0.0000e+00 -1.0000e+00
       22  1    1    2    0    0 +1.4570075908e+03 +3.5220015261e+02 -2.9695645855e+03 3.3264440315e+03 0.0000000000e+00 0.0000e+00 -1.0000e+00
       22  1    1    2    0    0 -4.1655229121e+02 +1.3273656092e+03 +1.4887989864e+03 2.0376304114e+03 0.0000000000e+00 0.0000e+00 -1.0000e+00
</event>
<event>
 6      1 +1.4834189e-01 1.00287700e+04 7.81653100e-03 6.93699100e-02
  1000022 -1    0    0    0    0 +0.0000000000e+00 +0.0000000000e+00 +4.4721471353e+01 1.0000100000e+04 1.0000000000e+04 0.0000e+00 1.0000e+00
  1000022 -1    0    0    0    0 -0.0000000000e+00 -0.0000000000e+00 -4.4721471353e+01 1.0000100000e+04 1.0000000000e+04 0.0000e+00 1.0000e+00
      -24  1    1    2    0    0 +6.1080461135e+03 +7.6601441515e+03 -1.8539343157e+03 9.9714332403e+03 7.9829010000e+01 0.0000e+00 -1.0000e+00
       24  1    1    2    0    0 -5.9181833320e+03 -7.5349051293e+03 +1.9224584411e+03 9.7725077840e+03 7.9829010000e+01 0.0000e+00 -1.0000e+00
       22  1    1    2    0    0 -4.9643110644e+00 -3.5855808411e+01 +8.0422693176e+00 3.7080472987e+01 0.0000000000e+00 0.0000e+00 -1.0000e+00
       22  1    1    2    0    0 -1.8489847046e+02 -8.9383213817e+01 -7.6566394712e+01 2.1917850280e+02 0.0000000000e+00 0.0000e+00 -1.0000e+00
</event>
<event>
 6      1 +1.4834189e-01 1.00930000e+04 7.81653100e-03 6.93314000e-02
  1000022 -1    0    0    0    0 +0.0000000000e+00 +0.0000000000e+00 +4.4721471353e+01 1.0000100000e+04 1.0000000000e+04 0.0000e+00 -1.0000e+00
  1000022 -1    0    0    0    0 -0.0000000000e+00 -0.0000000000e+00 -4.4721471353e+01 1.0000100000e+04 1.0000000000e+04 0.0000e+00 -1.0000e+00
      -24  1    1    2    0    0 -2.3957577051e+02 -2.9663262070e+02 -1.4721467234e+01 3.8984208843e+02 7.9829010000e+01 0.0000e+00 -1.0000e+00
       24  1    1    2    0    0 +5.5794554317e+03 +6.4136091834e+03 +2.5538174775e+03 8.8765456147e+03 7.9829010000e+01 0.0000e+00 -1.0000e+00
       22  1    1    2    0    0 +7.4717924269e+02 +8.7678330280e+02 -3.9082617652e+02 1.2164583351e+03 0.0000000000e+00 0.0000e+00 -1.0000e+00
       22  1    1    2    0    0 -6.0870589039e+03 -6.9937598655e+03 -2.1482698337e+03 9.5173539618e+03 0.0000000000e+00 0.0000e+00 -1.0000e+00
</event>
<event>
 6      1 +1.4834189e-01 1.00701800e+04 7.81653100e-03 6.93450500e-02
  1000022 -1    0    0    0    0 +0.0000000000e+00 +0.0000000000e+00 +4.4721471353e+01 1.0000100000e+04 1.0000000000e+04 0.0000e+00 -1.0000e+00
  1000022 -1    0    0    0    0 -0.0000000000e+00 -0.0000000000e+00 -4.4721471353e+01 1.0000100000e+04 1.0000000000e+04 0.0000e+00 -1.0000e+00
      -24  1    1    2    0    0 -8.4166152193e+03 +4.2058106713e+03 -3.1734317858e+03 9.9300199961e+03 7.9829010000e+01 0.0000e+00 -1.0000e+00
       24  1    1    2    0    0 +5.4165766469e+03 -3.1105975325e+03 +1.8892267213e+03 6.5261527607e+03 7.9829010000e+01 0.0000e+00 -1.0000e+00
       22  1    1    2    0    0 +5.1139855291e+01 -1.4870960779e+02 +2.1751001481e+02 2.6840349996e+02 0.0000000000e+00 0.0000e+00 1.0000e+00
       22  1    1    2    0    0 +2.9488987172e+03 -9.4650353102e+02 +1.0666950497e+03 3.2756237433e+03 0.0000000000e+00 0.0000e+00 -1.0000e+00
</event>
<event>
 6      1 +1.4834189e-01 1.00468900e+04 7.81653100e-03 6.93590200e-02
  1000022 -1    0    0    0    0 +0.0000000000e+00 +0.0000000000e+00 +4.4721471353e+01 1.0000100000e+04 1.0000000000e+04 0.0000e+00 1.0000e+00
  1000022 -1    0    0    0    0 -0.0000000000e+00 -0.0000000000e+00 -4.4721471353e+01 1.0000100000e+04 1.0000000000e+04 0.0000e+00 1.0000e+00
      -24  1    1    2    0    0 +2.1428222736e+02 +2.2936085412e+02 +9.6246726548e+02 1.0154994743e+03 7.9829010000e+01 0.0000e+00 -1.0000e+00
       24  1    1    2    0    0 -9.9712342947e+02 -5.5440857369e+03 -8.2055420286e+03 9.9533127372e+03 7.9829010000e+01 0.0000e+00 -1.0000e+00
       22  1    1    2    0    0 +7.1751475837e+02 +5.1084228205e+03 +6.7719220797e+03 8.5129160571e+03 0.0000000000e+00 0.0000e+00 -1.0000e+00
       22  1    1    2    0    0 +6.5326443737e+01 +2.0630206228e+02 +4.7115268337e+02 5.1847173134e+02 0.0000000000e+00 0.0000e+00 -1.0000e+00
</event>
<event>
 6      1 +1.4834189e-01 1.00015500e+04 7.81653100e-03 6.93863200e-02
  1000022 -1    0    0    0    0 +0.0000000000e+00 +0.0000000000e+00 +4.4721471353e+01 1.0000100000e+04 1.0000000000e+04 0.0000e+00 -1.0000e+00
  1000022 -1    0    0    0    0 -0.0000000000e+00 -0.0000000000e+00 -4.4721471353e+01 1.0000100000e+04 1.0000000000e+04 0.0000e+00 -1.0000e+00
      -24  1    1    2    0    0 +6.0289988859e+03 +2.6226237209e+03 +6.7584972424e+03 9.4292438931e+03 7.9829010000e+01 0.0000e+00 1.0000e+00
       24  1    1    2    0    0 -6.1632389583e+03 -2.7422063846e+03 -6.9704070886e+03 9.7004205045e+03 7.9829010000e+01 0.0000e+00 1.0000e+00
       22  1    1    2    0    0 -2.1173477960e+02 -4.4858548362e+01 -2.0937349670e+02 3.0113313895e+02 0.0000000000e+00 0.0000e+00 1.0000e+00
       22  1    1    2    0    0 +3.4597485200e+02 +1.6444121205e+02 +4.2128334286e+02 5.6940246347e+02 0.0000000000e+00 0.0000e+00 -1.0000e+00
</event>
<event>
 6      1 +1.4834189e-01 1.00007100e+04 7.81653100e-03 6.93868200e-02
  1000022 -1    0    0    0    0 +0.0000000000e+00 +0.0000000000e+00 +4.4721471353e+01 1.0000100000e+04 1.0000000000e+04 0.0000e+00 -1.0000e+00
  1000022 -1    0    0    0    0 -0.0000000000e+00 -0.0000000000e+00 -4.4721471353e+01 1.0000100000e+04 1.0000000000e+04 0.0000e+00 -1.0000e+00
      -24  1    1    2    0    0 -8.6926973969e+03 -3.6037281200e+03 -9.2498255405e+02 9.4557818182e+03 7.9829010000e+01 0.0000e+00 -1.0000e+00
       24  1    1    2    0    0 +9.1255976048e+03 +3.7555662777e+03 +9.4621096832e+02 9.9137529512e+03 7.9829010000e+01 0.0000e+00 -1.0000e+00
       22  1    1    2    0    0 -5.1309211236e+02 -1.8211617010e+02 -2.2839637731e+01 5.4493253182e+02 0.0000000000e+00 0.0000e+00 -1.0000e+00
       22  1    1    2    0    0 +8.0191904536e+01 +3.0278012464e+01 +1.6112234666e+00 8.5732698738e+01 0.0000000000e+00 0.0000e+00 1.0000e+00
</event>
<event>
 6      1 +1.4834189e-01 1.00398200e+04 7.81653100e-03 6.93632600e-02
  1000022 -1    0    0    0    0 +0.0000000000e+00 +0.0000000000e+00 +4.4721471353e+01 1.0000100000e+04 1.0000000000e+04 0.0000e+00 -1.0000e+00
  1000022 -1    0    0    0    0 -0.0000000000e+00 -0.0000000000e+00 -4.4721471353e+01 1.0000100000e+04 1.0000000000e+04 0.0000e+00 -1.0000e+00
      -24  1    1    2    0    0 -5.4203244944e+03 -5.5584453592e+03 +5.8936249561e+03 9.7476879428e+03 7.9829010000e+01 0.0000e+00 1.0000e+00
       24  1    1    2    0    0 +5.3260985894e+03 +5.7483169028e+03 -5.9611731033e+03 9.8464425473e+03 7.9829010000e+01 0.0000e+00 1.0000e+00
       22  1    1    2    0    0 +6.1262125937e+01 +6.5695474217e+01 -7.0084106115e+01 1.1393298617e+02 0.0000000000e+00 0.0000e+00 -1.0000e+00
       22  1    1    2    0    0 +3.2963779071e+01 -2.5556701786e+02 +1.3763225334e+02 2.9213652375e+02 0.0000000000e+00 0.0000e+00 1.0000e+00
</event>
<event>
 6      1 +1.4834189e-01 1.00611400e+04 7.81653100e-03 6.93504700e-02
  1000022 -1    0    0    0    0 +0.0000000000e+00 +0.0000000000e+00 +4.4721471353e+01 1.0000100000e+04 1.0000000000e+04 0.0000e+00 1.0000e+00
  1000022 -1    0    0    0    0 -0.0000000000e+00 -0.0000000000e+00 -4.4721471353e+01 1.0000100000e+04 1.0000000000e+04 0.0000e+00 1.0000e+00
      -24  1    1    2    0    0 +4.6184602628e+03 -1.6133027373e+03 +8.6121846038e+03 9.9049996083e+03 7.9829010000e+01 0.0000e+00 -1.0000e+00
       24  1    1    2    0    0 -3.9321159019e+03 +1.4337550508e+03 -7.1406543303e+03 8.2772281560e+03 7.9829010000e+01 0.0000e+00 -1.0000e+00
       22  1    1    2    0    0 -7.8386636839e+02 +2.9593136359e+02 -1.4351566969e+03 1.6618353107e+03 0.0000000000e+00 0.0000e+00 1.0000e+00
       22  1    1    2    0    0 +9.7522007530e+01 -1.1638367708e+02 -3.6373576618e+01 1.5613692491e+02 0.0000000000e+00 0.0000e+00 1.0000e+00
</event>
<event>
 6      1 +1.4834189e-01 1.00749100e+04 7.81653100e-03 6.93422200e-02
  1000022 -1    0    0    0    0 +0.0000000000e+00 +0.0000000000e+00 +4.4721471353e+01 1.0000100000e+04 1.0000000000e+04 0.0000e+00 1.0000e+00
  1000022 -1    0    0    0    0 -0.0000000000e+00 -0.0000000000e+00 -4.4721471353e+01 1.0000100000e+04 1.0000000000e+04 0.0000e+00 1.0000e+00
      -24  1    1    2    0    0 -6.7006187583e+02 -1.7756461378e+02 +1.8960505803e+02 7.2307320402e+02 7.9829010000e+01 0.0000e+00 -1.0000e+00
       24  1    1    2    0    0 +3.9723826205e+03 +5.0303479963e+03 -3.2937310284e+03 7.2068898566e+03 7.9829010000e+01 0.0000e+00 -1.0000e+00
       22  1    1    2    0    0 +1.5346212868e+03 +1.8552655756e+03 -1.2619888713e+03 2.7183981977e+03 0.0000000000e+00 0.0000e+00 -1.0000e+00
       22  1    1    2    0    0 -4.8369420314e+03 -6.7080489581e+03 +4.3661148417e+03 9.3518387417e+03 0.0000000000e+00 0.0000e+00 -1.0000e+00
</event>
<event>
 6      1 +1.4834189e-01 1.00031100e+04 7.81653100e-03 6.93853800e-02
  1000022 -1    0    0    0    0 +0.0000000000e+00 +0.0000000000e+00 +4.4721471353e+01 1.0000100000e+04 1.0000000000e+04 0.0000e+00 1.0000e+00
  1000022 -1    0    0    0    0 -0.0000000000e+00 -0.0000000000e+00 -4.4721471353e+01 1.0000100000e+04 1.0000000000e+04 0.0000e+00 1.0000e+00
      -24  1    1    2    0    0 -3.5867688813e+03 +5.3305503587e+02 -9.3159214162e+03 9.9970907360e+03 7.9829010000e+01 0.0000e+00 -1.0000e+00
       24  1    1    2    0    0 +3.4351151228e+03 -5.4535720303e+02 +8.9080828287e+03 9.5633541574e+03 7.9829010000e+01 0.0000e+00 -1.0000e+00
       22  1    1    2    0    0 -2.7539407298e+00 +9.6306740055e+00 +2.6850322472e+01 2.8657876547e+01 0.0000000000e+00 0.0000e+00 1.0000e+00
       22  1    1    2    0    0 +1.5440769927e+02 +2.6714931494e+00 +3.8098826502e+02 4.1109723005e+02 0.0000000000e+00 0.0000e+00 1.0000e+00
</event>
<event>
 6      1 +1.4834189e-01 1.00576600e+04 7.81653100e-03 6.93525600e-02
  1000022 -1    0    0    0    0 +0.0000000000e+00 +0.0000000000e+00 +4.4721471353e+01 1.0000100000e+04 1.0000000000e+04 0.0000e+00 1.0000e+00
  1000022 -1    0    0    0    0 -0.0000000000e+00 -0.0000000000e+00 -4.4721471353e+01 1.0000100000e+04 1.0000000000e+04 0.0000e+00 1.0000e+00
      -24  1    1    2    0    0 +8.7866340561e+02 -8.2548583061e+02 -1.3071553108e+03 1.7800291892e+03 7.9829010000e+01 0.0000e+00 1.0000e+00
       24  1    1    2    0    0 -5.1495461633e+03 +4.2252450617e+03 +7.3808701317e+03 9.9425418325e+03 7.9829010000e+01 0.0000e+00 -1.0000e+00
       22  1    1    2    0    0 +4.0517653657e+03 -3.4337446699e+03 -5.4245973871e+03 7.5916837295e+03 0.0000000000e+00 0.0000e+00 -1.0000e+00
       22  1    1    2    0    0 +2.1911739207e+02 +3.3985438773e+01 -6.4911743380e+02 6.8594524885e+02 0.0000000000e+00 0.0000e+00 -1.0000e+00
</event>
<event>
 6      1 +1.4834189e-01 1.01464500e+04 7.81653100e-03 6.92995800e-02
  1000022 -1    0    0    0    0 +0.0000000000e+00 +0.0000000000e+00 +4.4721471353e+01 1.0000100000e+04 1.0000000000e+04 0.0000e+00 -1.0000e+00
  1000022 -1    0    0    0    0 -0.0000000000e+00 -0.0000000000e+00 -4.4721471353e+01 1.0000100000e+04 1.0000000000e+04 0.0000e+00 -1.0000e+00
      -24  1    1    2    0    0 -3.8158125138e+02 -8.6987979586e+03 +3.2722196998e+03 9.3020688350e+03 7.9829010000e+01 0.0000e+00 1.0000e+00
       24  1    1    2    0    0 +9.0126655608e+02 +7.9796955277e+03 -3.1197865853e+03 8.6155245417e+03 7.9829010000e+01 0.0000e+00 1.0000e+00
       22  1    1    2    0    0 +1.4622251926e+02 +1.1438898958e+03 -4.5093087855e+02 1.2382260602e+03 0.0000000000e+00 0.0000e+00 -1.0000e+00
       22  1    1    2    0    0 -6.6590782396e+02 -4.2478746483e+02 +2.9849776407e+02 8.4438056316e+02 0.0000000000e+00 0.0000e+00 1.0000e+00
</event>
<event>
 6      1 +1.4834189e-01 1.00036400e+04 7.81653100e-03 6.93850600e-02
  1000022 -1    0    0    0    0 +0.0000000000e+00 +0.0000000000e+00 +4.4721471353e+01 1.0000100000e+04 1.0000000000e+04 0.0000e+00 1.0000e+00
  1000022 -1    0    0    0    0 -0.0000000000e+00 -0.0000000000e+00 -4.4721471353e+01 1.0000100000e+04 1.0000000000e+04 0.0000e+00 1.0000e+00
      -24  1    1    2    0    0 -3.1445400692e+03 -3.9563529072e+03 +9.1573770248e+02 5.1367118650e+03 7.9829010000e+01 0.0000e+00 1.0000e+00
       24  1    1    2    0    0 +3.8107630902e+02 +6.2060253102e+02 -8.4770795118e+01 7.3751299199e+02 7.9829010000e+01 0.0000e+00 1.0000e+00
       22  1    1    2    0    0 +5.8832095270e+03 +6.8727182334e+03 -2.0036563350e+03 9.2661237291e+03 0.0000000000e+00 0.0000e+00 1.0000e+00
       22  1    1    2    0    0 -3.1197457668e+03 -3.5369678572e+03 +1.1726894276e+03 4.8598514140e+03 0.0000000000e+00 0.0000e+00 1.0000e+00
</event>
<event>
 6      1 +1.4834189e-01 8.92781400e+03 7.81653100e-03 7.00790000e-02
  1000022 -1    0    0    0    0 +0.0000000000e+00 +0.0000000000e+00 +4.4721471353e+01 1.0000100000e+04 1.0000000000e+04 0.0000e+00 -1.0000e+00
  1000022 -1    0    0    0    0 -0.0000000000e+00 -0.0000000000e+00 -4.4721471353e+01 1.0000100000e+04 1.0000000000e+04 0.0000e+00 -1.0000e+00
      -24  1    1    2    0    0 +3.6882452851e+01 -8.8065868070e+01 +9.7830029985e+01 1.5830128885e+02 7.9829010000e+01 0.0000e+00 -1.0000e+00
       24  1    1    2    0    0 -2.0458730875e+03 +3.6815320204e+03 +7.7107174448e+03 8.7863991994e+03 7.9829010000e+01 0.0000e+00 1.0000e+00
       22  1    1    2    0    0 +1.7818790563e+03 +4.3125168776e+02 +4.3047297629e+02 1.8831829366e+03 0.0000000000e+00 0.0000e+00 -1.0000e+00
       22  1    1    2    0    0 +2.2711157835e+02 -4.0247178400e+03 -8.2390204511e+03 9.1723165751e+03 0.0000000000e+00 0.0000e+00 1.0000e+00
</event>
<event>
 6      1 +1.4834189e-01 1.00224200e+04 7.81653100e-03 6.93737300e-02
  1000022 -1    0    0    0    0 +0.0000000000e+00 +0.0000000000e+00 +4.4721471353e+01 1.0000100000e+04 1.0000000000e+04 0.0000e+00 1.0000e+00
  1000022 -1    0    0    0    0 -0.0000000000e+00 -0.0000000000e+00 -4.4721471353e+01 1.0000100000e+04 1.0000000000e+04 0.0000e+00 1.0000e+00
      -24  1    1    2    0    0 +4.1943748734e+03 -5.5365353557e+03 -6.9653862695e+03 9.8371226930e+03 7.9829010000e+01 0.0000e+00 -1.0000e+00
       24  1    1    2    0    0 -4.1655789974e+03 +5.6153086925e+03 +7.1180043102e+03 9.9777802203e+03 7.9829010000e+01 0.0000e+00 -1.0000e+00
       22  1    1    2    0    0 +7.7380486726e+00 -8.4666838686e+00 +1.9216996272e+00 1.1629920999e+01 0.0000000000e+00 0.0000e+00 1.0000e+00
       22  1    1    2    0    0 -3.6533924678e+01 -7.0306652908e+01 -1.5453974032e+02 1.7366716568e+02 0.0000000000e+00 0.0000e+00 1.0000e+00
</event>
<event>
 6      1 +1.4834189e-01 1.00002100e+04 7.81653100e-03 6.93871300e-02
  1000022 -1    0    0    0    0 +0.0000000000e+00 +0.0000000000e+00 +4.4721471353e+01 1.0000100000e+04 1.0000000000e+04 0.0000e+00 -1.0000e+00
  1000022 -1    0    0    0    0 -0.0000000000e+00 -0.0000000000e+00 -4.4721471353e+01 1.0000100000e+04 1.0000000000e+04 0.0000e+00 -1.0000e+00
      -24  1    1    2    0    0 +3.2537430041e+03 -8.3144242041e+03 +4.2861159574e+03 9.9042241520e+03 7.9829010000e+01 0.0000e+00 1.0000e+00
       24  1    1    2    0    0 -3.2749510690e+03 +8.3778413500e+03 -4.3124295769e+03 9.9758183482e+03 7.9829010000e+01 0.0000e+00 1.0000e+00
       22  1    1    2    0    0 -5.4818747928e+00 +2.1418453154e+01 -9.7825642234e+00 2.4176427560e+01 0.0000000000e+00 0.0000e+00 -1.0000e+00
       22  1    1    2    0    0 +2.6689939657e+01 -8.4835599069e+01 +3.6096183687e+01 9.5981072222e+01 0.0000000000e+00 0.0000e+00 -1.0000e+00
</event>
<event>
 6      1 +1.4834189e-01 5.95051800e+03 7.81653100e-03 7.26722500e-02
  1000022 -1    0    0    0    0 +0.0000000000e+00 +0.0000000000e+00 +4.4721471353e+01 1.0000100000e+04 1.0000000000e+04 0.0000e+00 -1.0000e+00
  1000022 -1    0    0    0    0 -0.0000000000e+00 -0.0000000000e+00 -4.4721471353e+01 1.0000100000e+04 1.0000000000e+04 0.0000e+00 -1.0000e+00
      -24  1    1    2    0    0 -3.2296641714e+02 +5.9201391923e+03 +2.5716746894e+03 6.4631446481e+03 7.9829010000e+01 0.0000e+00 -1.0000e+00
       24  1    1    2    0    0 +5.8722175540e+03 -2.9388689137e+03 -1.9262847852e+03 6.8437442411e+03 7.9829010000e+01 0.0000e+00 -1.0000e+00
       22  1    1    2    0    0 +1.9379506728e+02 -8.6753121667e+01 -1.1183725646e+02 2.3997959112e+02 0.0000000000e+00 0.0000e+00 -1.0000e+00
       22  1    1    2    0    0 -5.7430462041e+03 -2.8945171569e+03 -5.3355264779e+02 6.4533315197e+03 0.0000000000e+00 0.0000e+00 -1.0000e+00
</event>
<event>
 6      1 +1.4834189e-01 1.05141500e+04 7.81653100e-03 6.90858400e-02
  1000022 -1    0    0    0    0 +0.0000000000e+00 +0.0000000000e+00 +4.4721471353e+01 1.0000100000e+04 1.0000000000e+04 0.0000e+00 -1.0000e+00
  1000022 -1    0    0    0    0 -0.0000000000e+00 -0.0000000000e+00 -4.4721471353e+01 1.0000100000e+04 1.0000000000e+04 0.0000e+00 -1.0000e+00
      -24  1    1    2    0    0 -8.2562692509e+03 +4.3138123857e+03 -2.9759564903e+02 9.3204020881e+03 7.9829010000e+01 0.0000e+00 1.0000e+00
       24  1    1    2    0    0 +5.8370983165e+03 -2.4236809030e+03 -1.9843887365e+03 6.6249616757e+03 7.9829010000e+01 0.0000e+00 1.0000e+00
       22  1    1    2    0    0 +2.5727667709e+03 -1.8916530268e+03 +2.2199870722e+03 3.8891930566e+03 0.0000000000e+00 0.0000e+00 -1.0000e+00
       22  1    1    2    0    0 -1.5359583648e+02 +1.5215440558e+00 +6.1997313352e+01 1.6564317959e+02 0.0000000000e+00 0.0000e+00 -1.0000e+00
</event>
<event>
 6      1 +1.4834189e-01 1.00051900e+04 7.81653100e-03 6.93841200e-02
  1000022 -1    0    0    0    0 +0.0000000000e+00 +0.0000000000e+00 +4.4721471353e+01 1.0000100000e+04 1.0000000000e+04 0.0000e+00 1.0000e+00
  1000022 -1    0    0    0    0 -0.0000000000e+00 -0.0000000000e+00 -4.4721471353e+01 1.0000100000e+04 1.0000000000e+04 0.0000e+00 1.0000e+00
      -24  1    1    2    0    0 -4.4068979886e+03 +8.7424997993e+03 -4.6121051164e+02 9.8015886686e+03 7.9829010000e+01 0.0000e+00 -1.0000e+00
       24  1    1    2    0    0 +4.4202349076e+03 -8.8306077473e+03 +4.1997889233e+02 9.8843747787e+03 7.9829010000e+01 0.0000e+00 -1.0000e+00
       22  1    1    2    0    0 -1.0672644359e+02 +1.6050890675e+02 +1.6081221644e+01 1.9342246146e+02 0.0000000000e+00 0.0000e+00 -1.0000e+00
       22  1    1    2    0    0 +9.3389524539e+01 -7.2400958728e+01 +2.5150397664e+01 1.2081409115e+02 0.0000000000e+00 0.0000e+00 -1.0000e+00
</event>
<event>
 6      1 +1.4834189e-01 1.00683400e+04 7.81653100e-03 6.93461600e-02
  1000022 -1    0    0    0    0 +0.0000000000e+00 +0.0000000000e+00 +4.4721471353e+01 1.0000100000e+04 1.0000000000e+04 0.0000e+00 1.0000e+00
  1000022 -1    0    0    0    0 -0.0000000000e+00 -0.0000000000e+00 -4.4721471353e+01 1.0000100000e+04 1.0000000000e+04 0.0000e+00 1.0000e+00
      -24  1    1    2    0    0 +4.7633185374e+03 -3.8854259882e+03 +3.8187531966e+03 7.2370565319e+03 7.9829010000e+01 0.0000e+00 -1.0000e+00
       24  1    1    2    0    0 -6.2189272639e+03 +5.6807234954e+03 -5.2621146683e+03 9.9318628262e+03 7.9829010000e+01 0.0000e+00 -1.0000e+00
       22  1    1    2    0    0 +5.5696100279e+02 -9.3825860567e+02 +2.7272529519e+02 1.1246838918e+03 0.0000000000e+00 0.0000e+00 -1.0000e+00
       22  1    1    2    0    0 +8.9864772367e+02 -8.5703890159e+02 +1.1706361764e+03 1.7065967502e+03 0.0000000000e+00 0.0000e+00 -1.0000e+00
</event>
<event>
 6      1 +1.4834189e-01 1.01910600e+04 7.81653100e-03 6.92731600e-02
  1000022 -1    0    0    0    0 +0.0000000000e+00 +0.0000000000e+00 +4.4721471353e+01 1.0000100000e+04 1.0000000000e+04 0.0000e+00 1.0000e+00
  1000022 -1    0    0    0    0 -0.0000000000e+00 -0.0000000000e+00 -4.4721471353e+01 1.0000100000e+04 1.0000000000e+04 0.0000e+00 1.0000e+00
      -24  1    1    2    0    0 +6.5097521464e+02 -1.6667386857e+03 -4.3048943257e+03 4.6626467165e+03 7.9829010000e+01 0.0000e+00 1.0000e+00
       24  1    1    2    0    0 +8.5711257501e+02 +3.4020471503e+03 +9.1599232344e+03 9.8091351866e+03 7.9829010000e+01 0.0000e+00 1.0000e+00
       22  1    1    2    0    0 +2.3134631662e+02 -3.0534069139e+02 -8.8295609058e+02 9.6247883817e+02 0.0000000000e+00 0.0000e+00 1.0000e+00
       22  1    1    2    0    0 -1.7394341063e+03 -1.4299677732e+03 -3.9720728180e+03 4.5659392587e+03 0.0000000000e+00 0.0000e+00 1.0000e+00
</event>
<event>
 6      1 +1.4834189e-01 1.00406600e+04 7.81653100e-03 6.93627600e-02
  1000022 -1    0    0    0    0 +0.0000000000e+00 +0.0000000000e+00 +4.4721471353e+01 1.0000100000e+04 1.0000000000e+04 0.0000e+00 -1.0000e+00
  1000022 -1    0    0    0    0 -0.0000000000e+00 -0.0000000000e+00 -4.4721471353e+01 1.0000100000e+04 1.0000000000e+04 0.0000e+00 -1.0000e+00
      -24  1    1    2    0    0 +2.1482662516e+03 +9.4740023151e+03 +2.1941354173e+03 9.9595366687e+03 7.9829010000e+01 0.0000e+00 -1.0000e+00
       24  1    1    2    0    0 -1.3450953402e+03 -6.3926884793e+03 -1.3313493966e+03 6.6674291413e+03 7.9829010000e+01 0.0000e+00 -1.0000e+00
       22  1    1    2    0    0 -8.7936304913e+02 -2.9931671316e+03 -9.0664023464e+02 3.2487421204e+03 0.0000000000e+00 0.0000e+00 -1.0000e+00
       22  1    1    2    0    0 +7.6192137757e+01 -8.8146704297e+01 +4.3854213948e+01 1.2449206969e+02 0.0000000000e+00 0.0000e+00 -1.0000e+00
</event>
<event>
 6      1 +1.4834189e-01 1.01132300e+04 7.81653100e-03 6.93193400e-02
  1000022 -1    0    0    0    0 +0.0000000000e+00 +0.0000000000e+00 +4.4721471353e+01 1.0000100000e+04 1.0000000000e+04 0.0000e+00 -1.0000e+00
  1000022 -1    0    0    0    0 -0.0000000000e+00 -0.0000000000e+00 -4.4721471353e+01 1.0000100000e+04 1.0000000000e+04 0.0000e+00 -1.0000e+00
      -24  1    1    2    0    0 +5.9522512781e+03 +7.5624156951e+03 +2.2641630057e+03 9.8869729043e+03 7.9829010000e+01 0.0000e+00 -1.0000e+00
       24  1    1    2    0    0 +3.1304418141e+01 -5.3976474401e+02 +1.4661931840e+02 5.6585849895e+02 7.9829010000e+01 0.0000e+00 -1.0000e+00
       22  1    1    2    0    0 +2.2345968482e+00 -3.9492191248e+01 -1.7127937270e+00 3.9592426738e+01 0.0000000000e+00 0.0000e+00 -1.0000e+00
       22  1    1    2    0    0 -5.9857902931e+03 -6.9831587598e+03 -2.4090695304e+03 9.5077761700e+03 0.0000000000e+00 0.0000e+00 -1.0000e+00
</event>
<event>
 6      1 +1.4834189e-01 1.00133100e+04 7.81653100e-03 6.93792300e-02
  1000022 -1    0    0    0    0 +0.0000000000e+00 +0.0000000000e+00 +4.4721471353e+01 1.0000100000e+04 1.0000000000e+04 0.0000e+00 -1.0000e+00
  1000022 -1    0    0    0    0 -0.0000000000e+00 -0.0000000000e+00 -4.4721471353e+01 1.0000100000e+04 1.0000000000e+04 0.0000e+00 -1.0000e+00
      -24  1    1    2    0    0 -9.2976202769e+02 -4.5741046469e+03 +8.8286335305e+03 9.9868930822e+03 7.9829010000e+01 0.0000e+00 -1.0000e+00
       24  1    1    2    0    0 +2.2314009896e+02 +1.5676856141e+03 -2.7818145466e+03 3.2019204442e+03 7.9829010000e+01 0.0000e+00 -1.0000e+00
       22  1    1    2    0    0 +2.7655149198e+01 -1.8704247196e+01 -4.4483141056e+01 5.5618396044e+01 0.0000000000e+00 0.0000e+00 1.0000e+00
       22  1    1    2    0    0 +6.7896677953e+02 +3.0251232800e+03 -6.0023358429e+03 6.7557680775e+03 0.0000000000e+00 0.0000e+00 -1.0000e+00
</event>
<event>
 6      1 +1.4834189e-01 1.00281800e+04 7.81653100e-03 6.93702700e-02
  1000022 -1    0    0    0    0 +0.0000000000e+00 +0.0000000000e+00 +4.4721471353e+01 1.0000100000e+04 1.0000000000e+04 0.0000e+00 -1.0000e+00
  1000022 -1    0    0    0    0 -0.0000000000e+00 -0.0000000000e+00 -4.4721471353e+01 1.0000100000e+04 1.0000000000e+04 0.0000e+00 -1.0000e+00
      -24  1    1    2    0    0 +5.7770059132e+02 +1.3733033918e+03 -2.4116865501e+03 2.8358957784e+03 7.9829010000e+01 0.0000e+00 -1.0000e+00
       24  1    1    2    0    0 -3.1538878456e+03 -4.1528246693e+03 +8.4995180350e+03 9.9720178888e+03 7.9829010000e+01 0.0000e+00 -1.0000e+00
       22  1    1    2    0    0 +2.5661701963e+03 +2.7605181619e+03 -6.0978019227e+03 7.1686036497e+03 0.0000000000e+00 0.0000e+00 -1.0000e+00
       22  1    1    2    0    0 +1.0017057926e+01 +1.9003115551e+01 +9.9704377712e+00 2.3682683114e+01 0.0000000000e+00 0.0000e+00 1.0000e+00
</event>
<event>
 6      1 +1.4834189e-01 1.01063400e+04 7.81653100e-03 6.93234400e-02
  1000022 -1    0    0    0    0 +0.0000000000e+00 +0.0000000000e+00 +4.4721471353e+01 1.0000100000e+04 1.0000000000e+04 0.0000e+00 -1.0000e+00
  1000022 -1    0    0    0    0 -0.0000000000e+00 -0.0000000000e+00 -4.4721471353e+01 1.0000100000e+04 1.0000000000e+04 0.0000e+00 -1.0000e+00
      -24  1    1    2    0    0 +6.1789657450e+03 +5.1795545563e+03 +5.5097316991e+03 9.7658035587e+03 7.9829010000e+01 0.0000e+00 -1.0000e+00
       24  1    1    2    0    0 -1.7875145591e+02 -6.0987984775e+02 -1.0103154513e+03 1.1962505982e+03 7.9829010000e+01 0.0000e+00 -1.0000e+00
       22  1    1    2    0    0 +8.3408540550e+01 +7.3807604586e+01 +6.3189290460e+01 1.2805246409e+02 0.0000000000e+00 0.0000e+00 -1.0000e+00
       22  1    1    2    0    0 -6.0836228296e+03 -4.6434823131e+03 -4.5626055382e+03 8.9100933790e+03 0.0000000000e+00 0.0000e+00 -1.0000e+00
</event>
<event>
 6      1 +1.4834189e-01 1.02589500e+04 7.81653100e-03 6.92332300e-02
  1000022 -1    0    0    0    0 +0.0000000000e+00 +0.0000000000e+00 +4.4721471353e+01 1.0000100000e+04 1.0000000000e+04 0.0000e+00 1.0000e+00
  1000022 -1    0    0    0    0 -0.0000000000e+00 -0.0000000000e+00 -4.4721471353e+01 1.0000100000e+04 1.0000000000e+04 0.0000e+00 1.0000e+00
      -24  1    1    2    0    0 +6.0652220785e+03 -6.7524456714e+03 -1.4950742464e+03 9.1991337135e+03 7.9829010000e+01 0.0000e+00 1.0000e+00
       24  1    1    2    0    0 -6.0640149076e+03 +7.5723640183e+03 +8.7893849141e+02 9.7412462841e+03 7.9829010000e+01 0.0000e+00 1.0000e+00
       22  1    1    2    0    0 +3.8407846559e+01 -4.1234094878e+01 -1.3147164661e+01 5.7864161588e+01 0.0000000000e+00 0.0000e+00 1.0000e+00
       22  1    1    2    0    0 -3.9615017481e+01 -7.7868425201e+02 +6.2928291965e+02 1.0019558408e+03 0.0000000000e+00 0.0000e+00 -1.0000e+00
</event>
<event>
 6      1 +1.4834189e-01 5.60148500e+03 7.81653100e-03 7.30753900e-02
  1000022 -1    0    0    0    0 +0.0000000000e+00 +0.0000000000e+00 +4.4721471353e+01 1.0000100000e+04 1.0000000000e+04 0.0000e+00 -1.0000e+00
  1000022 -1    0    0    0    0 -0.0000000000e+00 -0.0000000000e+00 -4.4721471353e+01 1.0000100000e+04 1.0000000000e+04 0.0000e+00 -1.0000e+00
      -24  1    1    2    0    0 +5.4006720477e+03 +2.3581476342e+03 -4.2091705534e+03 7.2423482552e+03 7.9829010000e+01 0.0000e+00 1.0000e+00
       24  1    1    2    0    0 -1.8204849809e+03 +1.7167906345e+03 +6.3942703721e+03 6.8669208464e+03 7.9829010000e+01 0.0000e+00 1.0000e+00
       22  1    1    2    0    0 -3.6059478658e+03 -4.0773044596e+03 -2.1843906662e+03 5.8650519392e+03 0.0000000000e+00 0.0000e+00 1.0000e+00
       22  1    1    2    0    0 +2.5760799059e+01 +2.3661908704e+00 -7.0915253563e-01 2.5878959112e+01 0.0000000000e+00 0.0000e+00 1.0000e+00
</event>
<event>
 6      1 +1.4834189e-01 1.00022600e+04 7.81653100e-03 6.93858900e-02
  1000022 -1    0    0    0    0 +0.0000000000e+00 +0.0000000000e+00 +4.4721471353e+01 1.0000100000e+04 1.0000000000e+04 0.0000e+00 1.0000e+00
  1000022 -1    0    0    0    0 -0.0000000000e+00 -0.0000000000e+00 -4.4721471353e+01 1.0000100000e+04 1.0000000000e+04 0.0000e+00 1.0000e+00
      -24  1    1    2    0    0 -7.4163000521e+03 -6.1777848187e+03 +2.5454788250e+03 9.9826032100e+03 7.9829010000e+01 0.0000e+00 -1.0000e+00
       24  1    1    2    0    0 +7.0187332642e+03 +5.8270655448e+03 -2.4182449764e+03 9.4377746813e+03 7.9829010000e+01 0.0000e+00 -1.0000e+00
       22  1    1    2    0    0 -1.7087696294e+01 -1.2043357842e-01 +9.7192021949e+00 1.9658757850e+01 0.0000000000e+00 0.0000e+00 -1.0000e+00
       22  1    1    2    0    0 +4.1465448419e+02 +3.5083970742e+02 -1.3695305080e+02 5.6016335089e+02 0.0000000000e+00 0.0000e+00 -1.0000e+00
</event>
<event>
 6      1 +1.4834189e-01 1.00777200e+04 7.81653100e-03 6.93405400e-02
  1000022 -1    0    0    0    0 +0.0000000000e+00 +0.0000000000e+00 +4.4721471353e+01 1.0000100000e+04 1.0000000000e+04 0.0000e+00 1.0000e+00
  1000022 -1    0    0    0    0 -0.0000000000e+00 -0.0000000000e+00 -4.4721471353e+01 1.0000100000e+04 1.0000000000e+04 0.0000e+00 1.0000e+00
      -24  1    1    2    0    0 +8.1365814174e+03 +1.1764724547e+03 -5.2303086173e+03 9.7442570523e+03 7.9829010000e+01 0.0000e+00 1.0000e+00
       24  1    1    2    0    0 -8.2318323224e+03 -1.2946403665e+03 +5.3861097662e+03 9.9224849785e+03 7.9829010000e+01 0.0000e+00 1.0000e+00
       22  1    1    2    0    0 +1.1916704662e+02 +1.6970952465e+02 -4.9918945753e+01 2.1329324627e+02 0.0000000000e+00 0.0000e+00 1.0000e+00
       22  1    1    2    0    0 -2.3916141596e+01 -5.1541612820e+01 -1.0588220321e+02 1.2016472293e+02 0.0000000000e+00 0.0000e+00 1.0000e+00
</event>
<event>
 6      1 +1.4834189e-01 1.00360700e+04 7.81653100e-03 6.93655200e-02
  1000022 -1    0    0    0    0 +0.0000000000e+00 +0.0000000000e+00 +4.4721471353e+01 1.0000100000e+04 1.0000000000e+04 0.0000e+00 -1.0000e+00
  1000022 -1    0    0    0    0 -0.0000000000e+00 -0.0000000000e+00 -4.4721471353e+01 1.0000100000e+04 1.0000000000e+04 0.0000e+00 -1.0000e+00
      -24  1    1    2    0    0 +1.8258549186e+02 -1.5408066118e+02 +9.6431750647e+01 2.6972220034e+02 7.9829010000e+01 0.0000e+00 1.0000e+00
       24  1    1    2    0    0 -3.3243001533e+03 +3.3469817101e+03 -8.6785073877e+03 9.8780626252e+03 7.9829010000e+01 0.0000e+00 1.0000e+00
       22  1    1    2    0    0 -2.6458717916e+01 +3.6815891146e+01 -7.3160623080e+01 8.6069450818e+01 0.0000000000e+00 0.0000e+00 -1.0000e+00
       22  1    1    2    0    0 +3.1681733794e+03 -3.2297169401e+03 +8.6552362601e+03 9.7663457237e+03 0.0000000000e+00 0.0000e+00 1.0000e+00
</event>
<event>
 6      1 +1.4834189e-01 1.00080400e+04 7.81653100e-03 6.93824000e-02
  1000022 -1    0    0    0    0 +0.0000000000e+00 +0.0000000000e+00 +4.4721471353e+01 1.0000100000e+04 1.0000000000e+04 0.0000e+00 -1.0000e+00
  1000022 -1    0    0    0    0 -0.0000000000e+00 -0.0000000000e+00 -4.4721471353e+01 1.0000100000e+04 1.0000000000e+04 0.0000e+00 -1.0000e+00
      -24  1    1    2    0    0 +2.6645865376e+03 +1.0525585498e+02 -1.3165567476e+03 2.9750284960e+03 7.9829010000e+01 0.0000e+00 0.0000e+00
       24  1    1    2    0    0 -8.9195446582e+03 -9.6824822827e+01 +4.4913540159e+03 9.9873062195e+03 7.9829010000e+01 0.0000e+00 1.0000e+00
       22  1    1    2    0    0 -6.4138715073e+00 -1.8449804771e+01 -6.9396315489e+00 2.0729002142e+01 0.0000000000e+00 0.0000e+00 1.0000e+00
       22  1    1    2    0    0 +6.2613719921e+03 +1.0018772620e+01 -3.1678576367e+03 7.0171362824e+03 0.0000000000e+00 0.0000e+00 1.0000e+00
</event>
<event>
 6      1 +1.4834189e-01 1.00152400e+04 7.81653100e-03 6.93780600e-02
  1000022 -1    0    0    0    0 +0.0000000000e+00 +0.0000000000e+00 +4.4721471353e+01 1.0000100000e+04 1.0000000000e+04 0.0000e+00 1.0000e+00
  1000022 -1    0    0    0    0 -0.0000000000e+00 -0.0000000000e+00 -4.4721471353e+01 1.0000100000e+04 1.0000000000e+04 0.0000e+00 1.0000e+00
      -24  1    1    2    0    0 +3.2796352670e+03 -1.0287256123e+03 -1.3862791201e+02 3.4409118325e+03 7.9829010000e+01 0.0000e+00 -1.0000e+00
       24  1    1    2    0    0 -9.5082149803e+03 +2.5164041582e+03 -5.5440604172e+02 9.8515065207e+03 7.9829010000e+01 0.0000e+00 1.0000e+00
       22  1    1    2    0    0 -1.2897106286e+02 +3.3791500648e+01 -5.8699225457e+00 1.3345357456e+02 0.0000000000e+00 0.0000e+00 1.0000e+00
       22  1    1    2    0    0 +6.3575507761e+03 -1.5214700465e+03 +6.9890387627e+02 6.5743280723e+03 0.0000000000e+00 0.0000e+00 1.0000e+00
</event>
<event>
 6      1 +1.4834189e-01 1.03086500e+04 7.81653100e-03 6.92041900e-02
  1000022 -1    0    0    0    0 +0.0000000000e+00 +0.0000000000e+00 +4.4721471353e+01 1.0000100000e+04 1.0000000000e+04 0.0000e+00 -1.0000e+00
  1000022 -1    0    0    0    0 -0.0000000000e+00 -0.0000000000e+00 -4.4721471353e+01 1.0000100000e+04 1.0000000000e+04 0.0000e+00 -1.0000e+00
      -24  1    1    2    0    0 +3.6758514377e+03 +4.2996289056e+03 -5.5738743500e+03 7.9418600125e+03 7.9829010000e+01 0.0000e+00 -1.0000e+00
       24  1    1    2    0    0 -5.6808991762e+03 -3.9673079590e+03 +6.7755153731e+03 9.6915493670e+03 7.9829010000e+01 0.0000e+00 -1.0000e+00
       22  1    1    2    0    0 +1.9795613974e+03 -3.4620529118e+02 -1.1785270479e+03 2.3296882693e+03 0.0000000000e+00 0.0000e+00 1.0000e+00
       22  1    1    2    0    0 +2.5486341114e+01 +1.3884344573e+01 -2.3113975230e+01 3.7102351119e+01 0.0000000000e+00 0.0000e+00 -1.0000e+00
</event>
<event>
 6      1 +1.4834189e-01 1.00008000e+04 7.81653100e-03 6.93867700e-02
  1000022 -1    0    0    0    0 +0.0000000000e+00 +0.0000000000e+00 +4.4721471353e+01 1.0000100000e+04 1.0000000000e+04 0.0000e+00 -1.0000e+00
  1000022 -1    0    0    0    0 -0.0000000000e+00 -0.0000000000e+00 -4.4721471353e+01 1.0000100000e+04 1.0000000000e+04 0.0000e+00 -1.0000e+00
      -24  1    1    2    0    0 +3.2250465441e+02 -7.6312542310e+03 -6.3420404580e+03 9.9281367956e+03 7.9829010000e+01 0.0000e+00 -1.0000e+00
       24  1    1    2    0    0 -3.1498148472e+02 +7.5234300877e+03 +6.2700344382e+03 9.7990263878e+03 7.9829010000e+01 0.0000e+00 -1.0000e+00
       22  1    1    2    0    0 +4.7350095982e+00 -4.5420252630e+01 -5.6513968993e+01 7.2658436236e+01 0.0000000000e+00 0.0000e+00 -1.0000e+00
       22  1    1    2    0    0 -1.2258179285e+01 +1.5324439590e+02 +1.2851998877e+02 2.0037838043e+02 0.0000000000e+00 0.0000e+00 -1.0000e+00
</event>
<event>
 6      1 +1.4834189e-01 1.00048500e+04 7.81653100e-03 6.93843200e-02
  1000022 -1    0    0    0    0 +0.0000000000e+00 +0.0000000000e+00 +4.4721471353e+01 1.0000100000e+04 1.0000000000e+04 0.0000e+00 1.0000e+00
  1000022 -1    0    0    0    0 -0.0000000000e+00 -0.0000000000e+00 -4.4721471353e+01 1.0000100000e+04 1.0000000000e+04 0.0000e+00 1.0000e+00
      -24  1    1    2    0    0 +3.1885413256e+03 -9.0902871976e+03 -2.2828782108e+03 9.9004051794e+03 7.9829010000e+01 0.0000e+00 1.0000e+00
       24  1    1    2    0    0 -3.0764500323e+03 +8.9582310975e+03 +2.2688761829e+03 9.7400524127e+03 7.9829010000e+01 0.0000e+00 1.0000e+00
       22  1    1    2    0    0 -1.4463223610e+02 +2.1971419502e+02 +3.0455870438e+01 2.6480251370e+02 0.0000000000e+00 0.0000e+00 -1.0000e+00
       22  1    1    2    0    0 +3.2540942851e+01 -8.7658094920e+01 -1.6453842621e+01 9.4939894163e+01 0.0000000000e+00 0.0000e+00 1.0000e+00
</event>
<event>
 6      1 +1.4834189e-01 1.03275000e+04 7.81653100e-03 6.91932200e-02
  1000022 -1    0    0    0    0 +0.0000000000e+00 +0.0000000000e+00 +4.4721471353e+01 1.0000100000e+04 1.0000000000e+04 0.0000e+00 -1.0000e+00
  1000022 -1    0    0    0    0 -0.0000000000e+00 -0.0000000000e+00 -4.4721471353e+01 1.0000100000e+04 1.0000000000e+04 0.0000e+00 -1.0000e+00
      -24  1    1    2    0    0 -2.7608456315e+03 -7.8011764615e+03 +4.9902368472e+03 9.6638221862e+03 7.9829010000e+01 0.0000e+00 -1.0000e+00
       24  1    1    2    0    0 +3.2701761746e+03 +7.5589461245e+03 -4.5903013768e+03 9.4291546878e+03 7.9829010000e+01 0.0000e+00 -1.0000e+00
       22  1    1    2    0    0 +8.8039032025e+01 +1.9611327144e+02 -1.1446175679e+02 2.4354215274e+02 0.0000000000e+00 0.0000e+00 1.0000e+00
       22  1    1    2    0    0 -5.9736957513e+02 +4.6117065532e+01 -2.8547371363e+02 6.6368097321e+02 0.0000000000e+00 0.0000e+00 -1.0000e+00
</event>
<event>
 6      1 +1.4834189e-01 1.01660900e+04 7.81653100e-03 6.92879300e-02
  1000022 -1    0    0    0    0 +0.0000000000e+00 +0.0000000000e+00 +4.4721471353e+01 1.0000100000e+04 1.0000000000e+04 0.0000e+00 -1.0000e+00
  1000022 -1    0    0    0    0 -0.0000000000e+00 -0.0000000000e+00 -4.4721471353e+01 1.0000100000e+04 1.0000000000e+04 0.0000e+00 -1.0000e+00
      -24  1    1    2    0    0 -6.2599497649e+03 -6.3389218546e+03 +3.2525163497e+03 9.4844154598e+03 7.9829010000e+01 0.0000e+00 -1.0000e+00
       24  1    1    2    0    0 +6.7905320670e+03 +6.4391690447e+03 -3.0214469939e+03 9.8341109587e+03 7.9829010000e+01 0.0000e+00 -1.0000e+00
       22  1    1    2    0    0 -4.0560376004e+02 +1.4521066198e+01 -2.9350632200e+02 5.0087047485e+02 0.0000000000e+00 0.0000e+00 -1.0000e+00
       22  1    1    2    0    0 -1.2497854203e+02 -1.1476825638e+02 +6.2436966253e+01 1.8080310671e+02 0.0000000000e+00 0.0000e+00 1.0000e+00
</event>
<event>
 6      1 +1.4834189e-01 9.89854000e+03 7.81653100e-03 6.94488900e-02
  1000022 -1    0    0    0    0 +0.0000000000e+00 +0.0000000000e+00 +4.4721471353e+01 1.0000100000e+04 1.0000000000e+04 0.0000e+00 1.0000e+00
  1000022 -1    0    0    0    0 -0.0000000000e+00 -0.0000000000e+00 -4.4721471353e+01 1.0000100000e+04 1.0000000000e+04 0.0000e+00 1.0000e+00
      -24  1    1    2    0    0 -1.4507403510e+00 -2.9681721726e+01 -1.5199320131e+02 1.7423465021e+02 7.9829010000e+01 0.0000e+00 1.0000e+00
       24  1    1    2    0    0 +5.7596572362e+03 -6.5553567164e+03 +4.7328647295e+03 9.9273729846e+03 7.9829010000e+01 0.0000e+00 -1.0000e+00
       22  1    1    2    0    0 -5.7692544756e+03 +6.5871440260e+03 -4.5548166106e+03 9.8702136745e+03 0.0000000000e+00 0.0000e+00 -1.0000e+00
       22  1    1    2    0    0 +1.1047979764e+01 -2.1055879414e+00 -2.6054917565e+01 2.8378690716e+01 0.0000000000e+00 0.0000e+00 1.0000e+00
</event>
<event>
 6      1 +1.4834189e-01 1.00081400e+04 7.81653100e-03 6.93823400e-02
  1000022 -1    0    0    0    0 +0.0000000000e+00 +0.0000000000e+00 +4.4721471353e+01 1.0000100000e+04 1.0000000000e+04 0.0000e+00 1.0000e+00
  1000022 -1    0    0    0    0 -0.0000000000e+00 -0.0000000000e+00 -4.4721471353e+01 1.0000100000e+04 1.0000000000e+04 0.0000e+00 1.0000e+00
      -24  1    1    2    0    0 -2.7618935766e+02 -1.6418921975e+02 +2.4440293145e+02 4.1151442855e+02 7.9829010000e+01 0.0000e+00 0.0000e+00
       24  1    1    2    0    0 +6.4171760271e+03 +5.8190890723e+03 -4.7593940923e+03 9.8843386522e+03 7.9829010000e+01 0.0000e+00 -1.0000e+00
       22  1    1    2    0    0 -6.1949312230e+03 -5.7237300719e+03 +4.5778844840e+03 9.5966288426e+03 0.0000000000e+00 0.0000e+00 -1.0000e+00
       22  1    1    2    0    0 +5.3944553492e+01 +6.8830219398e+01 -6.2893323120e+01 1.0771807670e+02 0.0000000000e+00 0.0000e+00 1.0000e+00
</event>
<event>
 6      1 +1.4834189e-01 1.01762600e+04 7.81653100e-03 6.92819100e-02
  1000022 -1    0    0    0    0 +0.0000000000e+00 +0.0000000000e+00 +4.4721471353e+01 1.0000100000e+04 1.0000000000e+04 0.0000e+00 1.0000e+00
  1000022 -1    0    0    0    0 -0.0000000000e+00 -0.0000000000e+00 -4.4721471353e+01 1.0000100000e+04 1.0000000000e+04 0.0000e+00 1.0000e+00
      -24  1    1    2    0    0 -1.1549680098e+03 -9.2812232640e+02 -6.9881811511e+02 1.6401468182e+03 7.9829010000e+01 0.0000e+00 -1.0000e+00
       24  1    1    2    0    0 +6.1293975414e+03 +6.3150268987e+03 +4.3651242843e+03 9.8239381940e+03 7.9829010000e+01 0.0000e+00 -1.0000e+00
       22  1    1    2    0    0 -3.8926685430e+02 +6.0071806573e+01 +1.9178147192e+02 4.3808382620e+02 0.0000000000e+00 0.0000e+00 1.0000e+00
       22  1    1    2    0    0 -4.5851626773e+03 -5.4469763788e+03 -3.8580876411e+03 8.0980311616e+03 0.0000000000e+00 0.0000e+00 -1.0000e+00
</event>
<event>
 6      1 +1.4834189e-01 1.00145800e+04 7.81653100e-03 6.93784600e-02
  1000022 -1    0    0    0    0 +0.0000000000e+00 +0.0000000000e+00 +4.4721471353e+01 1.0000100000e+04 1.0000000000e+04 0.0000e+00 -1.0000e+00
  1000022 -1    0    0    0    0 -0.0000000000e+00 -0.0000000000e+00 -4.4721471353e+01 1.0000100000e+04 1.0000000000e+04 0.0000e+00 -1.0000e+00
      -24  1    1    2    0    0 -4.7091280163e+03 +6.7613570819e+03 -5.4764642711e+03 9.8939309603e+03 7.9829010000e+01 0.0000e+00 1.0000e+00
       24  1    1    2    0    0 +4.6849086366e+03 -6.8388691475e+03 +5.4630091447e+03 9.9282093922e+03 7.9829010000e+01 0.0000e+00 1.0000e+00
       22  1    1    2    0    0 +2.3437824177e+01 -4.1753677029e+01 +3.1670506639e+01 5.7408380385e+01 0.0000000000e+00 0.0000e+00 -1.0000e+00
       22  1    1    2    0    0 +7.8155543645e-01 +1.1926574259e+02 -1.8215380166e+01 1.2065126713e+02 0.0000000000e+00 0.0000e+00 1.0000e+00
</event>
<event>
 6      1 +1.4834189e-01 9.77611300e+03 7.81653100e-03 6.95242500e-02
  1000022 -1    0    0    0    0 +0.0000000000e+00 +0.0000000000e+00 +4.4721471353e+01 1.0000100000e+04 1.0000000000e+04 0.0000e+00 1.0000e+00
  1000022 -1    0    0    0    0 -0.0000000000e+00 -0.0000000000e+00 -4.4721471353e+01 1.0000100000e+04 1.0000000000e+04 0.0000e+00 1.0000e+00
      -24  1    1    2    0    0 -1.7351164812e+02 +4.7951514268e+01 -2.6586790710e+02 3.3085352442e+02 7.9829010000e+01 0.0000e+00 1.0000e+00
       24  1    1    2    0    0 +5.1484419070e+03 -7.8934649512e+03 -2.7561995946e+03 9.8191777599e+03 7.9829010000e+01 0.0000e+00 -1.0000e+00
       22  1    1    2    0    0 -4.9174876242e+03 +7.8075194965e+03 +3.1112393987e+03 9.7374974104e+03 0.0000000000e+00 0.0000e+00 -1.0000e+00
       22  1    1    2    0    0 -5.7442634767e+01 +3.7993940419e+01 -8.9171897042e+01 1.1267130522e+02 0.0000000000e+00 0.0000e+00 1.0000e+00
</event>
<event>
 6      1 +1.4834189e-01 1.00010000e+04 7.81653100e-03 6.93866500e-02
  1000022 -1    0    0    0    0 +0.0000000000e+00 +0.0000000000e+00 +4.4721471353e+01 1.0000100000e+04 1.0000000000e+04 0.0000e+00 1.0000e+00
  1000022 -1    0    0    0    0 -0.0000000000e+00 -0.0000000000e+00 -4.4721471353e+01 1.0000100000e+04 1.0000000000e+04 0.0000e+00 1.0000e+00
      -24  1    1    2    0    0 +1.2901655134e+03 -9.7003871957e+03 -1.0708667124e+03 9.8445501159e+03 7.9829010000e+01 0.0000e+00 1.0000e+00
       24  1    1    2    0    0 -1.2831551148e+03 +9.7412526426e+03 +1.1009740310e+03 9.8872142985e+03 7.9829010000e+01 0.0000e+00 1.0000e+00
       22  1    1    2    0    0 -4.3880755457e+01 +1.0478705680e+02 +6.5129375428e+00 1.1379044919e+02 0.0000000000e+00 0.0000e+00 -1.0000e+00
       22  1    1    2    0    0 +3.6870356858e+01 -1.4565250375e+02 -3.6620256185e+01 1.5464513645e+02 0.0000000000e+00 0.0000e+00 1.0000e+00
</event>
<event>
 6      1 +1.4834189e-01 1.00953100e+04 7.81653100e-03 6.93300300e-02
  1000022 -1    0    0    0    0 +0.0000000000e+00 +0.0000000000e+00 +4.4721471353e+01 1.0000100000e+04 1.0000000000e+04 0.0000e+00 1.0000e+00
  1000022 -1    0    0    0    0 -0.0000000000e+00 -0.0000000000e+00 -4.4721471353e+01 1.0000100000e+04 1.0000000000e+04 0.0000e+00 1.0000e+00
      -24  1    1    2    0    0 +6.6372723899e+03 -6.6524934587e+03 +3.1291367290e+03 9.9048939083e+03 7.9829010000e+01 0.0000e+00 1.0000e+00
       24  1    1    2    0    0 -5.5124962120e+03 +6.0785531111e+03 -2.3699033730e+03 8.5416179428e+03 7.9829010000e+01 0.0000e+00 1.0000e+00
       22  1    1    2    0    0 -7.1068695748e+02 +4.8554525384e+02 -7.3114693560e+02 1.1293387386e+03 0.0000000000e+00 0.0000e+00 1.0000e+00
       22  1    1    2    0    0 -4.1408922038e+02 +8.8395093729e+01 -2.8086420470e+01 4.2434941033e+02 0.0000000000e+00 0.0000e+00 -1.0000e+00
</event>
<event>
 6      1 +1.4834189e-01 1.00048200e+04 7.81653100e-03 6.93843400e-02
  1000022 -1    0    0    0    0 +0.0000000000e+00 +0.0000000000e+00 +4.4721471353e+01 1.0000100000e+04 1.0000000000e+04 0.0000e+00 -1.0000e+00
  1000022 -1    0    0    0    0 -0.0000000000e+00 -0.0000000000e+00 -4.4721471353e+01 1.0000100000e+04 1.0000000000e+04 0.0000e+00 -1.0000e+00
      -24  1    1    2    0    0 +7.2761621936e+02 +3.4995032019e+03 +9.2196287534e+03 9.8885729529e+03 7.9829010000e+01 0.0000e+00 -1.0000e+00
       24  1    1    2    0    0 -7.1936949121e+02 -3.3076743346e+03 -8.7727704144e+03 9.4035139913e+03 7.9829010000e+01 0.0000e+00 -1.0000e+00
       22  1    1    2    0    0 -3.9805798337e+01 -1.9111378961e+02 -5.5874126926e+02 5.9186213609e+02 0.0000000000e+00 0.0000e+00 -1.0000e+00
       22  1    1    2    0    0 +3.1559070191e+01 -7.1507770237e-01 +1.1188293031e+02 1.1625091975e+02 0.0000000000e+00 0.0000e+00 1.0000e+00
</event>
<event>
 6      1 +1.4834189e-01 1.00176900e+04 7.81653100e-03 6.93765800e-02
  1000022 -1    0    0    0    0 +0.0000000000e+00 +0.0000000000e+00 +4.4721471353e+01 1.0000100000e+04 1.0000000000e+04 0.0000e+00 1.0000e+00
  1000022 -1    0    0    0    0 -0.0000000000e+00 -0.0000000000e+00 -4.4721471353e+01 1.0000100000e+04 1.0000000000e+04 0.0000e+00 1.0000e+00
      -24  1    1    2    0    0 +5.5508370361e+03 -8.1127248878e+03 +1.7366686828e+03 9.9825090880e+03 7.9829010000e+01 0.0000e+00 1.0000e+00
       24  1    1    2    0    0 -2.6760932532e+03 +4.1812544309e+03 -9.4194465865e+02 5.0535132459e+03 7.9829010000e+01 0.0000e+00 1.0000e+00
       22  1    1    2    0    0 -2.8117277175e+03 +3.8407418692e+03 -8.5831572730e+02 4.8367154921e+03 0.0000000000e+00 0.0000e+00 1.0000e+00
       22  1    1    2    0    0 -6.3016065355e+01 +9.0728587644e+01 +6.3591703112e+01 1.2746217405e+02 0.0000000000e+00 0.0000e+00 1.0000e+00
</event>
<event>
 6      1 +1.4834189e-01 1.00503200e+04 7.81653100e-03 6.93569600e-02
  1000022 -1    0    0    0    0 +0.0000000000e+00 +0.0000000000e+00 +4.4721471353e+01 1.0000100000e+04 1.0000000000e+04 0.0000e+00 1.0000e+00
  1000022 -1    0    0    0    0 -0.0000000000e+00 -0.0000000000e+00 -4.4721471353e+01 1.0000100000e+04 1.0000000000e+04 0.0000e+00 1.0000e+00
      -24  1    1    2    0    0 -4.3845335408e+03 +7.3552448138e+03 +4.8763107819e+03 9.8543665527e+03 7.9829010000e+01 0.0000e+00 -1.0000e+00
       24  1    1    2    0    0 +2.9476982116e+03 -3.6677280497e+03 -2.9533266927e+03 5.5560476076e+03 7.9829010000e+01 0.0000e+00 1.0000e+00
       22  1    1    2    0    0 +1.4759181720e+03 -3.7580100864e+03 -1.9742210148e+03 4.4942766799e+03 0.0000000000e+00 0.0000e+00 -1.0000e+00
       22  1    1    2    0    0 -3.9082842672e+01 +7.0493322283e+01 +5.1236925589e+01 9.5509159883e+01 0.0000000000e+00 0.0000e+00 -1.0000e+00
</event>
<event>
 6      1 +1.4834189e-01 1.05256400e+04 7.81653100e-03 6.90793100e-02
  1000022 -1    0    0    0    0 +0.0000000000e+00 +0.0000000000e+00 +4.4721471353e+01 1.0000100000e+04 1.0000000000e+04 0.0000e+00 1.0000e+00
  1000022 -1    0    0    0    0 -0.0000000000e+00 -0.0000000000e+00 -4.4721471353e+01 1.0000100000e+04 1.0000000000e+04 0.0000e+00 1.0000e+00
      -24  1    1    2    0    0 +8.9685568234e+03 -1.8082517173e+03 -1.8997815038e+03 9.3445346701e+03 7.9829010000e+01 0.0000e+00 -1.0000e+00
       24  1    1    2    0    0 -9.3468566015e+03 +1.0730235804e+03 +1.1161167128e+03 9.4745552466e+03 7.9829010000e+01 0.0000e+00 -1.0000e+00
       22  1    1    2    0    0 +3.1186402105e+01 -1.8411780369e+01 -4.7574925773e+00 3.6526963578e+01 0.0000000000e+00 0.0000e+00 1.0000e+00
       22  1    1    2    0    0 +3.4711337603e+02 +7.5363991723e+02 +7.8842228360e+02 1.1445831197e+03 0.0000000000e+00 0.0000e+00 1.0000e+00
</event>
<event>
 6      1 +1.4834189e-01 1.00029700e+04 7.81653100e-03 6.93854600e-02
  1000022 -1    0    0    0    0 +0.0000000000e+00 +0.0000000000e+00 +4.4721471353e+01 1.0000100000e+04 1.0000000000e+04 0.0000e+00 -1.0000e+00
  1000022 -1    0    0    0    0 -0.0000000000e+00 -0.0000000000e+00 -4.4721471353e+01 1.0000100000e+04 1.0000000000e+04 0.0000e+00 -1.0000e+00
      -24  1    1    2    0    0 -2.1370537100e+03 +8.4502227605e+03 -1.7116617105e+03 8.8830975309e+03 7.9829010000e+01 0.0000e+00 -1.0000e+00
       24  1    1    2    0    0 +2.4805050397e+03 -9.4861539582e+03 +1.8985245767e+03 9.9875317476e+03 7.9829010000e+01 0.0000e+00 -1.0000e+00
       22  1    1    2    0    0 -3.5813008021e+02 +1.0389802845e+03 -1.8317979498e+02 1.1141328570e+03 0.0000000000e+00 0.0000e+00 -1.0000e+00
       22  1    1    2    0    0 +1.4678750487e+01 -3.0490867944e+00 -3.6830712333e+00 1.5437864484e+01 0.0000000000e+00 0.0000e+00 -1.0000e+00
</event>
<event>
 6      1 +1.4834189e-01 6.33964000e+03 7.81653100e-03 7.22546000e-02
  1000022 -1    0    0    0    0 +0.0000000000e+00 +0.0000000000e+00 +4.4721471353e+01 1.0000100000e+04 1.0000000000e+04 0.0000e+00 -1.0000e+00
  1000022 -1    0    0    0    0 -0.0000000000e+00 -0.0000000000e+00 -4.4721471353e+01 1.0000100000e+04 1.0000000000e+04 0.0000e+00 -1.0000e+00
      -24  1    1    2    0    0 +4.4150976331e+03 +3.3419301520e+03 -2.2811254176e+03 5.9892812668e+03 7.9829010000e+01 0.0000e+00 1.0000e+00
       24  1    1    2    0    0 -4.0416728591e+03 -7.9201183235e+03 +1.3665403762e+02 8.8931682068e+03 7.9829010000e+01 0.0000e+00 1.0000e+00
       22  1    1    2    0    0 -3.4337773945e+02 +4.5917300130e+03 +2.1539698134e+03 5.0834514595e+03 0.0000000000e+00 0.0000e+00 1.0000e+00
       22  1    1    2    0    0 -3.0047034553e+01 -1.3541841490e+01 -9.4984333391e+00 3.4299066930e+01 0.0000000000e+00 0.0000e+00 -1.0000e+00
</event>
<event>
 6      1 +1.4834189e-01 1.00999600e+04 7.81653100e-03 6.93272500e-02
  1000022 -1    0    0    0    0 +0.0000000000e+00 +0.0000000000e+00 +4.4721471353e+01 1.0000100000e+04 1.0000000000e+04 0.0000e+00 1.0000e+00
  1000022 -1    0    0    0    0 -0.0000000000e+00 -0.0000000000e+00 -4.4721471353e+01 1.0000100000e+04 1.0000000000e+04 0.0000e+00 1.0000e+00
      -24  1    1    2    0    0 -7.7720127803e+03 +4.9257989043e+03 +2.0039232930e+02 9.2040321196e+03 7.9829010000e+01 0.0000e+00 -1.0000e+00
       24  1    1    2    0    0 +8.4173784907e+03 -5.1897185389e+03 -4.7208755518e+02 9.9002362851e+03 7.9829010000e+01 0.0000e+00 -1.0000e+00
       22  1    1    2    0    0 -6.7750195235e+02 +2.0433715049e+02 +1.0420400483e+02 7.1527689822e+02 0.0000000000e+00 0.0000e+00 1.0000e+00
       22  1    1    2    0    0 +3.2136241884e+01 +5.9582484062e+01 +1.6749122105e+02 1.8065469709e+02 0.0000000000e+00 0.0000e+00 -1.0000e+00
</event>
<event>
 6      1 +1.4834189e-01 1.00016900e+04 7.81653100e-03 6.93862300e-02
  1000022 -1    0    0    0    0 +0.0000000000e+00 +0.0000000000e+00 +4.4721471353e+01 1.0000100000e+04 1.0000000000e+04 0.0000e+00 1.0000e+00
  1000022 -1    0    0    0    0 -0.0000000000e+00 -0.0000000000e+00 -4.4721471353e+01 1.0000100000e+04 1.0000000000e+04 0.0000e+00 1.0000e+00
      -24  1    1    2    0    0 +2.3037878595e+02 +1.2152718605e+03 +3.5412270779e+03 3.7518824566e+03 7.9829010000e+01 0.0000e+00 1.0000e+00
       24  1    1    2    0    0 -1.4139602418e+02 -6.2454099934e+02 -1.9118347427e+03 2.0178030255e+03 7.9829010000e+01 0.0000e+00 -1.0000e+00
       22  1    1    2    0    0 -7.2702403971e+02 -2.3298237664e+03 -7.5983579956e+03 7.9807071721e+03 0.0000000000e+00 0.0000e+00 1.0000e+00
       22  1    1    2    0    0 +6.3804127794e+02 +1.7390929052e+03 +5.9689656604e+03 6.2498073459e+03 0.0000000000e+00 0.0000e+00 1.0000e+00
</event>
<event>
 6      1 +1.4834189e-01 1.00119700e+04 7.81653100e-03 6.93800300e-02
  1000022 -1    0    0    0    0 +0.0000000000e+00 +0.0000000000e+00 +4.4721471353e+01 1.0000100000e+04 1.0000000000e+04 0.0000e+00 -1.0000e+00
  1000022 -1    0    0    0    0 -0.0000000000e+00 -0.0000000000e+00 -4.4721471353e+01 1.0000100000e+04 1.0000000000e+04 0.0000e+00 -1.0000e+00
      -24  1    1    2    0    0 -8.3491669093e+02 -4.8826375358e+03 -2.4276293432e+03 5.5169730909e+03 7.9829010000e+01 0.0000e+00 1.0000e+00
       24  1    1    2    0    0 +1.4656778754e+03 +8.9541750544e+03 +4.1752705777e+03 9.9882290526e+03 7.9829010000e+01 0.0000e+00 1.0000e+00
       22  1    1    2    0    0 -6.2810335822e+02 -4.0381182464e+03 -1.6780994922e+03 4.4177970422e+03 0.0000000000e+00 0.0000e+00 -1.0000e+00
       22  1    1    2    0    0 -2.6578262859e+00 -3.3419272175e+01 -6.9541742378e+01 7.7200814285e+01 0.0000000000e+00 0.0000e+00 -1.0000e+00
</event>
<event>
 6      1 +1.4834189e-01 1.00580100e+04 7.81653100e-03 6.93523500e-02
  1000022 -1    0    0    0    0 +0.0000000000e+00 +0.0000000000e+00 +4.4721471353e+01 1.0000100000e+04 1.0000000000e+04 0.0000e+00 1.0000e+00
  1000022 -1    0    0    0    0 -0.0000000000e+00 -0.0000000000e+00 -4.4721471353e+01 1.0000100000e+04 1.0000000000e+04 0.0000e+00 1.0000e+00
      -24  1    1    2    0    0 +9.1424617276e+03 +1.5537601355e+03 -3.1419180590e+03 9.7916698657e+03 7.9829010000e+01 0.0000e+00 1.0000e+00
       24  1    1    2    0    0 -9.3194015967e+03 -1.3752805323e+03 +3.1777642915e+03 9.9421929787e+03 7.9829010000e+01 0.0000e+00 1.0000e+00
       22  1    1    2    0    0 +1.2531981117e+02 -8.3949028082e+01 -4.7156200532e+01 1.5803860806e+02 0.0000000000e+00 0.0000e+00 1.0000e+00
       22  1    1    2    0    0 +5.1620057927e+01 -9.4530575106e+01 +1.1309968002e+01 1.0829854748e+02 0.0000000000e+00 0.0000e+00 1.0000e+00
</event>
<event>
 6      1 +1.4834189e-01 1.00002700e+04 7.81653100e-03 6.93870900e-02
  1000022 -1    0    0    0    0 +0.0000000000e+00 +0.0000000000e+00 +4.4721471353e+01 1.0000100000e+04 1.0000000000e+04 0.0000e+00 -1.0000e+00
  1000022 -1    0    0    0    0 -0.0000000000e+00 -0.0000000000e+00 -4.4721471353e+01 1.0000100000e+04 1.0000000000e+04 0.0000e+00 -1.0000e+00
      -24  1    1    2    0    0 +6.4452272898e+03 +4.7642930462e+03 +5.6829016076e+03 9.8255374611e+03 7.9829010000e+01 0.0000e+00 -1.0000e+00
       24  1    1    2    0    0 -6.5427967741e+03 -4.7862334183e+03 -5.8193285399e+03 9.9793375175e+03 7.9829010000e+01 0.0000e+00 -1.0000e+00
       22  1    1    2    0    0 +8.3985894812e+01 +2.8145304560e+01 +1.5061229918e+02 1.7472794098e+02 0.0000000000e+00 0.0000e+00 1.0000e+00
       22  1    1    2    0    0 +1.3583589434e+01 -6.2049324132e+00 -1.4185366888e+01 2.0597080422e+01 0.0000000000e+00 0.0000e+00 -1.0000e+00
</event>
<event>
 6      1 +1.4834189e-01 1.00001400e+04 7.81653100e-03 6.93871700e-02
  1000022 -1    0    0    0    0 +0.0000000000e+00 +0.0000000000e+00 +4.4721471353e+01 1.0000100000e+04 1.0000000000e+04 0.0000e+00 1.0000e+00
  1000022 -1    0    0    0    0 -0.0000000000e+00 -0.0000000000e+00 -4.4721471353e+01 1.0000100000e+04 1.0000000000e+04 0.0000e+00 1.0000e+00
      -24  1    1    2    0    0 -9.4232156842e+03 +9.5079586163e+02 +3.1028324044e+03 9.9666919387e+03 7.9829010000e+01 0.0000e+00 1.0000e+00
       24  1    1    2    0    0 +9.1713822305e+03 -9.4518064478e+02 -3.0319586527e+03 9.7060169180e+03 7.9829010000e+01 0.0000e+00 1.0000e+00
       22  1    1    2    0    0 -2.9412958702e+01 +6.5299194689e+00 +1.4340517176e+01 3.3367835123e+01 0.0000000000e+00 0.0000e+00 1.0000e+00
       22  1    1    2    0    0 +2.8124641234e+02 -1.2145136321e+01 -8.5214268884e+01 2.9412330818e+02 0.0000000000e+00 0.0000e+00 1.0000e+00
</event>
<event>
 6      1 +1.4834189e-01 9.55627700e+03 7.81653100e-03 6.96624200e-02
  1000022 -1    0    0    0    0 +0.0000000000e+00 +0.0000000000e+00 +4.4721471353e+01 1.0000100000e+04 1.0000000000e+04 0.0000e+00 1.0000e+00
  1000022 -1    0    0    0    0 -0.0000000000e+00 -0.0000000000e+00 -4.4721471353e+01 1.0000100000e+04 1.0000000000e+04 0.0000e+00 1.0000e+00
      -24  1    1    2    0    0 +1.1263807140e+03 +7.0428335775e+03 +6.2830052843e+03 9.5054072184e+03 7.9829010000e+01 0.0000e+00 -1.0000e+00
       24  1    1    2    0    0 +7.5975167966e+02 +1.9922566696e+02 -2.2964052217e+02 8.2220491447e+02 7.9829010000e+01 0.0000e+00 1.0000e+00
       22  1    1    2    0    0 -1.9206774085e+03 -7.2567606749e+03 -6.0261743808e+03 9.6262326415e+03 0.0000000000e+00 0.0000e+00 -1.0000e+00
       22  1    1    2    0    0 +3.4545014869e+01 +1.4701430413e+01 -2.7190381354e+01 4.6355225668e+01 0.0000000000e+00 0.0000e+00 1.0000e+00
</event>
<event>
 6      1 +1.4834189e-01 1.00296000e+04 7.81653100e-03 6.93694100e-02
  1000022 -1    0    0    0    0 +0.0000000000e+00 +0.0000000000e+00 +4.4721471353e+01 1.0000100000e+04 1.0000000000e+04 0.0000e+00 1.0000e+00
  1000022 -1    0    0    0    0 -0.0000000000e+00 -0.0000000000e+00 -4.4721471353e+01 1.0000100000e+04 1.0000000000e+04 0.0000e+00 1.0000e+00
      -24  1    1    2    0    0 +6.0183946582e+03 -2.8739503924e+03 -7.0911039756e+03 9.7350291927e+03 7.9829010000e+01 0.0000e+00 1.0000e+00
       24  1    1    2    0    0 -6.1217432947e+03 +2.8304899436e+03 +7.2579380182e+03 9.9081507474e+03 7.9829010000e+01 0.0000e+00 1.0000e+00
       22  1    1    2    0    0 -4.1346385591e+01 +1.1407463844e+02 +5.1327786565e+00 1.2144501700e+02 0.0000000000e+00 0.0000e+00 -1.0000e+00
       22  1    1    2    0    0 +1.4469502211e+02 -7.0614189682e+01 -1.7196682122e+02 2.3557504284e+02 0.0000000000e+00 0.0000e+00 1.0000e+00
</event>
<event>
 6      1 +1.4834189e-01 1.00588300e+04 7.81653100e-03 6.93518500e-02
  1000022 -1    0    0    0    0 +0.0000000000e+00 +0.0000000000e+00 +4.4721471353e+01 1.0000100000e+04 1.0000000000e+04 0.0000e+00 1.0000e+00
  1000022 -1    0    0    0    0 -0.0000000000e+00 -0.0000000000e+00 -4.4721471353e+01 1.0000100000e+04 1.0000000000e+04 0.0000e+00 1.0000e+00
      -24  1    1    2    0    0 -8.1680074690e+02 -4.1208130667e+03 +5.1339670194e+03 6.6341731827e+03 7.9829010000e+01 0.0000e+00 1.0000e+00
       24  1    1    2    0    0 +2.3239194907e+03 +6.0317154805e+03 -7.5155577539e+03 9.9132322913e+03 7.9829010000e+01 0.0000e+00 1.0000e+00
       22  1    1    2    0    0 +2.6771329047e+01 +4.0288469668e+00 -7.6583872017e+00 2.8135148148e+01 0.0000000000e+00 0.0000e+00 1.0000e+00
       22  1    1    2    0    0 -1.5338900729e+03 -1.9149312608e+03 +2.3892491217e+03 3.4246593779e+03 0.0000000000e+00 0.0000e+00 1.0000e+00
</event>
<event>
 6      1 +1.4834189e-01 1.00002100e+04 7.81653100e-03 6.93871300e-02
  1000022 -1    0    0    0    0 +0.0000000000e+00 +0.0000000000e+00 +4.4721471353e+01 1.0000100000e+04 1.0000000000e+04 0.0000e+00 -1.0000e+00
  1000022 -1    0    0    0    0 -0.0000000000e+00 -0.0000000000e+00 -4.4721471353e+01 1.0000100000e+04 1.0000000000e+04 0.0000e+00 -1.0000e+00
      -24  1    1    2    0    0 -3.8628064091e+03 +6.8256876367e+03 -3.2738434901e+03 8.4991593076e+03 7.9829010000e+01 0.0000e+00 -1.0000e+00
       24  1    1    2    0    0 +4.4571796744e+03 -7.9099324820e+03 +3.7506887536e+03 9.8238241697e+03 7.9829010000e+01 0.0000e+00 -1.0000e+00
       22  1    1    2    0    0 +8.4436248612e+01 -1.3719031713e+02 +7.1301789358e+01 1.7616642234e+02 0.0000000000e+00 0.0000e+00 -1.0000e+00
       22  1    1    2    0    0 -6.7880951397e+02 +1.2214351625e+03 -5.4814705284e+02 1.5010501004e+03 0.0000000000e+00 0.0000e+00 -1.0000e+00
</event>
<event>
 6      1 +1.4834189e-01 1.06842800e+04 7.81653100e-03 6.89899100e-02
  1000022 -1    0    0    0    0 +0.0000000000e+00 +0.0000000000e+00 +4.4721471353e+01 1.0000100000e+04 1.0000000000e+04 0.0000e+00 1.0000e+00
  1000022 -1    0    0    0    0 -0.0000000000e+00 -0.0000000000e+00 -4.4721471353e+01 1.0000100000e+04 1.0000000000e+04 0.0000e+00 1.0000e+00
      -24  1    1    2    0    0 -1.3240279133e+02 -8.5938557784e+03 -3.4083588150e+03 9.2463598309e+03 7.9829010000e+01 0.0000e+00 1.0000e+00
       24  1    1    2    0    0 -1.4883871776e+03 +7.4975253262e+03 +1.2874298282e+03 7.7519049685e+03 7.9829010000e+01 0.0000e+00 1.0000e+00
       22  1    1    2    0    0 +1.6242585998e+03 +1.1602738381e+03 +2.1481030372e+03 2.9323707196e+03 0.0000000000e+00 0.0000e+00 -1.0000e+00
       22  1    1    2    0    0 -3.4686309299e+00 -6.3943385953e+01 -2.7174050394e+01 6.9564481041e+01 0.0000000000e+00 0.0000e+00 1.0000e+00
</event>
<event>
 6      1 +1.4834189e-01 1.01133400e+04 7.81653100e-03 6.93192700e-02
  1000022 -1    0    0    0    0 +0.0000000000e+00 +0.0000000000e+00 +4.4721471353e+01 1.0000100000e+04 1.0000000000e+04 0.0000e+00 -1.0000e+00
  1000022 -1    0    0    0    0 -0.0000000000e+00 -0.0000000000e+00 -4.4721471353e+01 1.0000100000e+04 1.0000000000e+04 0.0000e+00 -1.0000e+00
      -24  1    1    2    0    0 -3.4603606463e+03 +3.1993449662e+03 -8.2614181090e+03 9.5114302740e+03 7.9829010000e+01 0.0000e+00 -1.0000e+00
       24  1    1    2    0    0 +3.9303060195e+03 -3.3702759195e+03 +8.0908247778e+03 9.6059295977e+03 7.9829010000e+01 0.0000e+00 -1.0000e+00
       22  1    1    2    0    0 -2.4188474940e+02 +5.0059351471e+01 +4.4322490938e+02 5.0740761815e+02 0.0000000000e+00 0.0000e+00 -1.0000e+00
       22  1    1    2    0    0 -2.2806062374e+02 +1.2087160184e+02 -2.7263157820e+02 3.7543251013e+02 0.0000000000e+00 0.0000e+00 1.0000e+00
</event>
<event>
 6      1 +1.4834189e-01 1.00811500e+04 7.81653100e-03 6.93384900e-02
  1000022 -1    0    0    0    0 +0.0000000000e+00 +0.0000000000e+00 +4.4721471353e+01 1.0000100000e+04 1.0000000000e+04 0.0000e+00 1.0000e+00
  1000022 -1    0    0    0    0 -0.0000000000e+00 -0.0000000000e+00 -4.4721471353e+01 1.0000100000e+04 1.0000000000e+04 0.0000e+00 1.0000e+00
      -24  1    1    2    0    0 -8.5678448328e+03 +2.4074496992e+03 +4.3792044833e+03 9.9190515530e+03 7.9829010000e+01 0.0000e+00 1.0000e+00
       24  1    1    2    0    0 +4.6940210428e+03 -1.5416589337e+03 -2.2291265676e+03 5.4208785029e+03 7.9829010000e+01 0.0000e+00 1.0000e+00
       22  1    1    2    0    0 +1.6269750952e+03 +3.0413729983e+00 -1.3734789920e+03 2.1292021397e+03 0.0000000000e+00 0.0000e+00 -1.0000e+00
       22  1    1    2    0    0 +2.2468486948e+03 -8.6883213841e+02 -7.7659892371e+02 2.5310678044e+03 0.0000000000e+00 0.0000e+00 -1.0000e+00
</event>
<event>
 6      1 +1.4834189e-01 1.00352300e+04 7.81653100e-03 6.93660300e-02
  1000022 -1    0    0    0    0 +0.0000000000e+00 +0.0000000000e+00 +4.4721471353e+01 1.0000100000e+04 1.0000000000e+04 0.0000e+00 1.0000e+00
  1000022 -1    0    0    0    0 -0.0000000000e+00 -0.0000000000e+00 -4.4721471353e+01 1.0000100000e+04 1.0000000000e+04 0.0000e+00 1.0000e+00
      -24  1    1    2    0    0 +2.4015015264e+01 -1.6779855914e+02 +7.9205667747e+01 2.0341899137e+02 7.9829010000e+01 0.0000e+00 -1.0000e+00
       24  1    1    2    0    0 +1.2531373294e+03 +8.6914191922e+02 -7.7476454434e+03 7.8967172565e+03 7.9829010000e+01 0.0000e+00 1.0000e+00
       22  1    1    2    0    0 -1.8160490155e+03 -1.2922161711e+03 +9.5758324441e+03 9.8318067341e+03 0.0000000000e+00 0.0000e+00 1.0000e+00
       22  1    1    2    0    0 +5.3889667089e+02 +5.9087281098e+02 -1.9073926685e+03 2.0682570180e+03 0.0000000000e+00 0.0000e+00 1.0000e+00
</event>
<event>
 6      1 +1.4834189e-01 1.01395600e+04 7.81653100e-03 6.93036700e-02
  1000022 -1    0    0    0    0 +0.0000000000e+00 +0.0000000000e+00 +4.4721471353e+01 1.0000100000e+04 1.0000000000e+04 0.0000e+00 -1.0000e+00
  1000022 -1    0    0    0    0 -0.0000000000e+00 -0.0000000000e+00 -4.4721471353e+01 1.0000100000e+04 1.0000000000e+04 0.0000e+00 -1.0000e+00
      -24  1    1    2    0    0 -8.7041495798e+03 +4.6328658042e+03 +1.6300012146e+01 9.8606441893e+03 7.9829010000e+01 0.0000e+00 -1.0000e+00
       24  1    1    2    0    0 +5.4910756096e+03 -3.7443590851e+03 +7.6989703197e+02 6.6911322225e+03 7.9829010000e+01 0.0000e+00 -1.0000e+00
       22  1    1    2    0    0 +3.0134442940e+03 -7.8721783759e+02 -8.2321459999e+02 3.2215276989e+03 0.0000000000e+00 0.0000e+00 -1.0000e+00
       22  1    1    2    0    0 +1.9962967621e+02 -1.0128888142e+02 +3.7017555874e+01 2.2689588927e+02 0.0000000000e+00 0.0000e+00 -1.0000e+00
</event>
<event>
 6      1 +1.4834189e-01 1.04369500e+04 7.81653100e-03 6.91299800e-02
  1000022 -1    0    0    0    0 +0.0000000000e+00 +0.0000000000e+00 +4.4721471353e+01 1.0000100000e+04 1.0000000000e+04 0.0000e+00 -1.0000e+00
  1000022 -1    0    0    0    0 -0.0000000000e+00 -0.0000000000e+00 -4.4721471353e+01 1.0000100000e+04 1.0000000000e+04 0.0000e+00 -1.0000e+00
      -24  1    1    2    0    0 +3.4155126405e+03 +2.6237071941e+02 -2.1975456114e+03 4.0706442214e+03 7.9829010000e+01 0.0000e+00 1.0000e+00
       24  1    1    2    0    0 -7.3649930203e+03 -4.9666929977e+03 +3.5409235903e+03 9.5632460005e+03 7.9829010000e+01 0.0000e+00 1.0000e+00
       22  1    1    2    0    0 +6.9500439663e+01 -4.2406676008e+01 -6.3912886383e+01 1.0350601108e+02 0.0000000000e+00 0.0000e+00 1.0000e+00
       22  1    1    2    0    0 +3.8799799402e+03 +4.7467289543e+03 -1.2794650925e+03 6.2628037671e+03 0.0000000000e+00 0.0000e+00 1.0000e+00
</event>
<event>
 6      1 +1.4834189e-01 1.00039400e+04 7.81653100e-03 6.93848800e-02
  1000022 -1    0    0    0    0 +0.0000000000e+00 +0.0000000000e+00 +4.4721471353e+01 1.0000100000e+04 1.0000000000e+04 0.0000e+00 1.0000e+00
  1000022 -1    0    0    0    0 -0.0000000000e+00 -0.0000000000e+00 -4.4721471353e+01 1.0000100000e+04 1.0000000000e+04 0.0000e+00 1.0000e+00
      -24  1    1    2    0    0 +7.0070870705e+02 -1.7113158065e+03 +3.9589886898e+03 4.3703041769e+03 7.9829010000e+01 0.0000e+00 1.0000e+00
       24  1    1    2    0    0 -1.9393756515e+03 +3.2148907924e+03 -9.2055362464e+03 9.9420808174e+03 7.9829010000e+01 0.0000e+00 1.0000e+00
       22  1    1    2    0    0 +2.3953898372e+01 +3.3091407702e+01 -3.5589675793e+01 5.4179844351e+01 0.0000000000e+00 0.0000e+00 -1.0000e+00
       22  1    1    2    0    0 +1.2147130461e+03 -1.5366663937e+03 +5.2821372324e+03 5.6336351614e+03 0.0000000000e+00 0.0000e+00 1.0000e+00
</event>
<event>
 6      1 +1.4834189e-01 1.00093200e+04 7.81653100e-03 6.93816300e-02
  1000022 -1    0    0    0    0 +0.0000000000e+00 +0.0000000000e+00 +4.4721471353e+01 1.0000100000e+04 1.0000000000e+04 0.0000e+00 1.0000e+00
  1000022 -1    0    0    0    0 -0.0000000000e+00 -0.0000000000e+00 -4.4721471353e+01 1.0000100000e+04 1.0000000000e+04 0.0000e+00 1.0000e+00
      -24  1    1    2    0    0 +5.3118814443e+03 +5.5720326529e+03 -5.8664680806e+03 9.6791245872e+03 7.9829010000e+01 0.0000e+00 -1.0000e+00
       24  1    1    2    0    0 -5.4355644120e+03 -5.6670922995e+03 +6.1215396887e+03 9.9569531705e+03 7.9829010000e+01 0.0000e+00 -1.0000e+00
       22  1    1    2    0    0 +1.4408596416e+02 +1.1416138797e+02 -2.7429598528e+02 3.3019975032e+02 0.0000000000e+00 0.0000e+00 -1.0000e+00
       22  1    1    2    0    0 -2.0402996427e+01 -1.9101741354e+01 +1.9224377130e+01 3.3922491977e+01 0.0000000000e+00 0.0000e+00 1.0000e+00
</event>
<event>
 6      1 +1.4834189e-01 1.00295200e+04 7.81653100e-03 6.93694600e-02
  1000022 -1    0    0    0    0 +0.0000000000e+00 +0.0000000000e+00 +4.4721471353e+01 1.0000100000e+04 1.0000000000e+04 0.0000e+00 1.0000e+00
  1000022 -1    0    0    0    0 -0.0000000000e+00 -0.0000000000e+00 -4.4721471353e+01 1.0000100000e+04 1.0000000000e+04 0.0000e+00 1.0000e+00
      -24  1    1    2    0    0 +7.1551612108e+02 -2.2617752897e+03 -9.6103406040e+03 9.8991216770e+03 7.9829010000e+01 0.0000e+00 -1.0000e+00
       24  1    1    2    0    0 -9.2030441670e+02 +2.1811939376e+03 +9.2195419432e+03 9.5189754452e+03 7.9829010000e+01 0.0000e+00 -1.0000e+00
       22  1    1    2    0    0 +6.1299489005e+00 -1.5318157401e+01 -6.9629781655e+01 7.1557869679e+01 0.0000000000e+00 0.0000e+00 1.0000e+00
       22  1    1    2    0    0 +1.9865834673e+02 +9.5899509514e+01 +4.6042844249e+02 5.1054500811e+02 0.0000000000e+00 0.0000e+00 1.0000e+00
</event>
<event>
 6      1 +1.4834189e-01 1.00057900e+04 7.81653100e-03 6.93837600e-02
  1000022 -1    0    0    0    0 +0.0000000000e+00 +0.0000000000e+00 +4.4721471353e+01 1.0000100000e+04 1.0000000000e+04 0.0000e+00 -1.0000e+00
  1000022 -1    0    0    0    0 -0.0000000000e+00 -0.0000000000e+00 -4.4721471353e+01 1.0000100000e+04 1.0000000000e+04 0.0000e+00 -1.0000e+00
      -24  1    1    2    0    0 -1.4655388229e+02 -5.1698204187e+02 -8.2395826123e+02 9.8692875078e+02 7.9829010000e+01 0.0000e+00 1.0000e+00
       24  1    1    2    0    0 +2.6803953197e+03 +5.2977807041e+03 +7.9028584837e+03 9.8849655712e+03 7.9829010000e+01 0.0000e+00 1.0000e+00
       22  1    1    2    0    0 -2.5637557766e+03 -4.8304148145e+03 -7.1717547164e+03 9.0188589453e+03 0.0000000000e+00 0.0000e+00 1.0000e+00
       22  1    1    2    0    0 +2.9914339178e+01 +4.9616152276e+01 +9.2854493940e+01 1.0944673271e+02 0.0000000000e+00 0.0000e+00 1.0000e+00
</event>
<event>
 6      1 +1.4834189e-01 1.00173100e+04 7.81653100e-03 6.93768100e-02
  1000022 -1    0    0    0    0 +0.0000000000e+00 +0.0000000000e+00 +4.4721471353e+01 1.0000100000e+04 1.0000000000e+04 0.0000e+00 1.0000e+00
  1000022 -1    0    0    0    0 -0.0000000000e+00 -0.0000000000e+00 -4.4721471353e+01 1.0000100000e+04 1.0000000000e+04 0.0000e+00 1.0000e+00
      -24  1    1    2    0    0 -2.2000508150e+03 -2.8650277780e+03 -2.8662560800e+03 4.6119848595e+03 7.9829010000e+01 0.0000e+00 0.0000e+00
       24  1    1    2    0    0 +4.6747762046e+03 +6.1132933263e+03 +6.3182870150e+03 9.9575605110e+03 7.9829010000e+01 0.0000e+00 -1.0000e+00
       22  1    1    2    0    0 -2.5283648968e+03 -3.2663591710e+03 -3.4329108977e+03 5.3709038826e+03 0.0000000000e+00 0.0000e+00 -1.0000e+00
       22  1    1    2    0    0 +5.3639507169e+01 +1.8093622762e+01 -1.9120037294e+01 5.9750746775e+01 0.0000000000e+00 0.0000e+00 1.0000e+00
</event>
<event>
 6      1 +1.4834189e-01 1.00723900e+04 7.81653100e-03 6.93437300e-02
  1000022 -1    0    0    0    0 +0.0000000000e+00 +0.0000000000e+00 +4.4721471353e+01 1.0000100000e+04 1.0000000000e+04 0.0000e+00 -1.0000e+00
  1000022 -1    0    0    0    0 -0.0000000000e+00 -0.0000000000e+00 -4.4721471353e+01 1.0000100000e+04 1.0000000000e+04 0.0000e+00 -1.0000e+00
      -24  1    1    2    0    0 +8.2525565420e+03 +2.1772820713e+03 +4.9980486376e+03 9.8910115536e+03 7.9829010000e+01 0.0000e+00 -1.0000e+00
       24  1    1    2    0    0 -8.2975621546e+03 -2.0267885960e+03 -5.0594091058e+03 9.9278095717e+03 7.9829010000e+01 0.0000e+00 -1.0000e+00
       22  1    1    2    0    0 +3.1261259452e+01 -1.5181769555e+02 +4.8251828452e+01 1.6233951452e+02 0.0000000000e+00 0.0000e+00 1.0000e+00
       22  1    1    2    0    0 +1.3744353129e+01 +1.3242202551e+00 +1.3108639660e+01 1.9039360178e+01 0.0000000000e+00 0.0000e+00 -1.0000e+00
</event>
<event>
 6      1 +1.4834189e-01 1.00001300e+04 7.81653100e-03 6.93871800e-02
  1000022 -1    0    0    0    0 +0.0000000000e+00 +0.0000000000e+00 +4.4721471353e+01 1.0000100000e+04 1.0000000000e+04 0.0000e+00 1.0000e+00
  1000022 -1    0    0    0    0 -0.0000000000e+00 -0.0000000000e+00 -4.4721471353e+01 1.0000100000e+04 1.0000000000e+04 0.0000e+00 1.0000e+00
      -24  1    1    2    0    0 +8.2461655074e+03 -4.6968686541e+03 -1.7082646125e+03 9.6428399026e+03 7.9829010000e+01 0.0000e+00 -1.0000e+00
       24  1    1    2    0    0 -9.6695159723e+02 +3.7676316291e+02 +2.7506927013e+02 1.0765600989e+03 7.9829010000e+01 0.0000e+00 1.0000e+00
       22  1    1    2    0    0 -7.5312831647e+03 +4.5114890690e+03 +1.5988631578e+03 8.9235712091e+03 0.0000000000e+00 0.0000e+00 -1.0000e+00
       22  1    1    2    0    0 +2.5206925446e+02 -1.9138357783e+02 -1.6566781540e+02 3.5722878939e+02 0.0000000000e+00 0.0000e+00 1.0000e+00
</event>
<event>
 6      1 +1.4834189e-01 1.00200200e+04 7.81653100e-03 6.93751800e-02
  1000022 -1    0    0    0    0 +0.0000000000e+00 +0.0000000000e+00 +4.4721471353e+01 1.0000100000e+04 1.0000000000e+04 0.0000e+00 -1.0000e+00
  1000022 -1    0    0    0    0 -0.0000000000e+00 -0.0000000000e+00 -4.4721471353e+01 1.0000100000e+04 1.0000000000e+04 0.0000e+00 -1.0000e+00
      -24  1    1    2    0    0 +9.6424674916e+03 -9.4975875426e+02 -2.2477748154e+03 9.9467625542e+03 7.9829010000e+01 0.0000e+00 -1.0000e+00
       24  1    1    2    0    0 -9.6651949174e+03 +9.7825384522e+02 +2.2857465117e+03 9.9801795156e+03 7.9829010000e+01 0.0000e+00 -1.0000e+00
       22  1    1    2    0    0 +3.0482565803e+01 -5.2682403157e+00 -3.7259455323e+00 3.1158046217e+01 0.0000000000e+00 0.0000e+00 -1.0000e+00
       22  1    1    2    0    0 -7.7551400228e+00 -2.3226850649e+01 -3.4245750764e+01 4.2099884005e+01 0.0000000000e+00 0.0000e+00 1.0000e+00
</event>
<event>
 6      1 +1.4834189e-01 1.00055700e+04 7.81653100e-03 6.93838900e-02
  1000022 -1    0    0    0    0 +0.0000000000e+00 +0.0000000000e+00 +4.4721471353e+01 1.0000100000e+04 1.0000000000e+04 0.0000e+00 1.0000e+00
  1000022 -1    0    0    0    0 -0.0000000000e+00 -0.0000000000e+00 -4.4721471353e+01 1.0000100000e+04 1.0000000000e+04 0.0000e+00 1.0000e+00
      -24  1    1    2    0    0 -2.1844272458e+03 -6.4715966150e+03 -1.9613350348e+03 7.1067920280e+03 7.9829010000e+01 0.0000e+00 -1.0000e+00
       24  1    1    2    0    0 +2.6751071018e+03 +8.7752386577e+03 +2.5631052253e+03 9.5255914552e+03 7.9829010000e+01 0.0000e+00 -1.0000e+00
       22  1    1    2    0    0 +1.2980786424e+02 +4.3390793628e+02 +1.2193403261e+02 4.6903527276e+02 0.0000000000e+00 0.0000e+00 1.0000e+00
       22  1    1    2    0    0 -6.2048772023e+02 -2.7375499790e+03 -7.2370422305e+02 2.8987812440e+03 0.0000000000e+00 0.0000e+00 -1.0000e+00
</event>
<event>
 6      1 +1.4834189e-01 1.00035600e+04 7.81653100e-03 6.93851100e-02
  1000022 -1    0    0    0    0 +0.0000000000e+00 +0.0000000000e+00 +4.4721471353e+01 1.0000100000e+04 1.0000000000e+04 0.0000e+00 1.0000e+00
  1000022 -1    0    0    0    0 -0.0000000000e+00 -0.0000000000e+00 -4.4721471353e+01 1.0000100000e+04 1.0000000000e+04 0.0000e+00 1.0000e+00
      -24  1    1    2    0    0 +2.5878337158e+03 +2.0588378281e+03 -3.1070936280e+02 3.3224402962e+03 7.9829010000e+01 0.0000e+00 -1.0000e+00
       24  1    1    2    0    0 -7.8646789881e+03 -5.9084286044e+03 +1.3512383565e+03 9.9294975666e+03 7.9829010000e+01 0.0000e+00 1.0000e+00
       22  1    1    2    0    0 -5.0550469716e+01 -4.2215879532e+01 +1.3061596243e+01 6.7142652387e+01 0.0000000000e+00 0.0000e+00 1.0000e+00
       22  1    1    2    0    0 +5.3273957420e+03 +3.8918066558e+03 -1.0535905899e+03 6.6811194847e+03 0.0000000000e+00 0.0000e+00 1.0000e+00
</event>
<event>
 6      1 +1.4834189e-01 1.00372100e+04 7.81653100e-03 6.93648400e-02
  1000022 -1    0    0    0    0 +0.0000000000e+00 +0.0000000000e+00 +4.4721471353e+01 1.0000100000e+04 1.0000000000e+04 0.0000e+00 1.0000e+00
  1000022 -1    0    0    0    0 -0.0000000000e+00 -0.0000000000e+00 -4.4721471353e+01 1.0000100000e+04 1.0000000000e+04 0.0000e+00 1.0000e+00
      -24  1    1    2    0    0 -1.3125846473e+03 +6.7743476371e+03 -7.1861074814e+03 9.9629904030e+03 7.9829010000e+01 0.0000e+00 1.0000e+00
       24  1    1    2    0    0 +5.2987541911e+02 -2.5850109526e+03 +2.4722765748e+03 3.6168458245e+03 7.9829010000e+01 0.0000e+00 -1.0000e+00
       22  1    1    2    0    0 +7.8270976863e+02 -4.0394310871e+03 +4.7304807571e+03 6.2695363690e+03 0.0000000000e+00 0.0000e+00 1.0000e+00
       22  1    1    2    0    0 -5.4040849465e-04 -1.4990559747e+02 -1.6649850455e+01 1.5082740359e+02 0.0000000000e+00 0.0000e+00 -1.0000e+00
</event>
<event>
 6      1 +1.4834189e-01 1.13027600e+04 7.81653100e-03 6.86556900e-02
  1000022 -1    0    0    0    0 +0.0000000000e+00 +0.0000000000e+00 +4.4721471353e+01 1.0000100000e+04 1.0000000000e+04 0.0000e+00 1.0000e+00
  1000022 -1    0    0    0    0 -0.0000000000e+00 -0.0000000000e+00 -4.4721471353e+01 1.0000100000e+04 1.0000000000e+04 0.0000e+00 1.0000e+00
      -24  1    1    2    0    0 -6.4401367934e+03 +3.7652928829e+03 -3.9377103650e+03 8.4359189186e+03 7.9829010000e+01 0.0000e+00 1.0000e+00
       24  1    1    2    0    0 +7.4972173925e+03 -3.3493285617e+03 +1.2202610954e+03 8.3019082298e+03 7.9829010000e+01 0.0000e+00 1.0000e+00
       22  1    1    2    0    0 -8.5422082307e+02 -5.4079074664e+02 +2.8254183770e+03 3.0008560197e+03 0.0000000000e+00 0.0000e+00 1.0000e+00
       22  1    1    2    0    0 -2.0285977596e+02 +1.2482642540e+02 -1.0796910739e+02 2.6151683183e+02 0.0000000000e+00 0.0000e+00 1.0000e+00
</event>
<event>
 6      1 +1.4834189e-01 7.40711100e+03 7.81653100e-03 7.12489200e-02
  1000022 -1    0    0    0    0 +0.0000000000e+00 +0.0000000000e+00 +4.4721471353e+01 1.0000100000e+04 1.0000000000e+04 0.0000e+00 1.0000e+00
  1000022 -1    0    0    0    0 -0.0000000000e+00 -0.0000000000e+00 -4.4721471353e+01 1.0000100000e+04 1.0000000000e+04 0.0000e+00 1.0000e+00
      -24  1    1    2    0    0 -4.2401285856e+03 +6.6231332470e+02 +1.4011388634e+03 4.5151868342e+03 7.9829010000e+01 0.0000e+00 1.0000e+00
       24  1    1    2    0    0 +5.8364944872e+03 +5.8402092983e+03 -1.8159193917e+03 8.4543863441e+03 7.9829010000e+01 0.0000e+00 1.0000e+00
       22  1    1    2    0    0 -1.7174389139e+03 -6.6250354611e+03 +4.3123569839e+02 6.8575983778e+03 0.0000000000e+00 0.0000e+00 1.0000e+00
       22  1    1    2    0    0 +1.2107301221e+02 +1.2251283805e+02 -1.6455170112e+01 1.7302844389e+02 0.0000000000e+00 0.0000e+00 1.0000e+00
</event>
<event>
 6      1 +1.4834189e-01 1.00007200e+04 7.81653100e-03 6.93868200e-02
  1000022 -1    0    0    0    0 +0.0000000000e+00 +0.0000000000e+00 +4.4721471353e+01 1.0000100000e+04 1.0000000000e+04 0.0000e+00 -1.0000e+00
  1000022 -1    0    0    0    0 -0.0000000000e+00 -0.0000000000e+00 -4.4721471353e+01 1.0000100000e+04 1.0000000000e+04 0.0000e+00 -1.0000e+00
      -24  1    1    2    0    0 +3.2266065532e+03 +9.3784196399e+03 +1.0533923201e+03 9.9740539823e+03 7.9829010000e+01 0.0000e+00 -1.0000e+00
       24  1    1    2    0    0 -3.0515567658e+03 -8.9569176049e+03 -9.8621604540e+02 9.5140615110e+03 7.9829010000e+01 0.0000e+00 -1.0000e+00
       22  1    1    2    0    0 +8.1790121453e+00 +2.3482825819e+01 +5.3010639680e+00 2.5425196701e+01 0.0000000000e+00 0.0000e+00 -1.0000e+00
       22  1    1    2    0    0 -1.8322879948e+02 -4.4498486084e+02 -7.2477338674e+01 4.8665930994e+02 0.0000000000e+00 0.0000e+00 -1.0000e+00
</event>
<event>
 6      1 +1.4834189e-01 1.00458200e+04 7.81653100e-03 6.93596600e-02
  1000022 -1    0    0    0    0 +0.0000000000e+00 +0.0000000000e+00 +4.4721471353e+01 1.0000100000e+04 1.0000000000e+04 0.0000e+00 -1.0000e+00
  1000022 -1    0    0    0    0 -0.0000000000e+00 -0.0000000000e+00 -4.4721471353e+01 1.0000100000e+04 1.0000000000e+04 0.0000e+00 -1.0000e+00
      -24  1    1    2    0    0 +2.2993843542e+03 -8.8270703368e+03 -3.8507924099e+03 9.9014803940e+03 7.9829010000e+01 0.0000e+00 1.0000e+00
       24  1    1    2    0    0 -2.2273532358e+03 +8.6944040259e+03 +3.5139804470e+03 9.6388897211e+03 7.9829010000e+01 0.0000e+00 1.0000e+00
       22  1    1    2    0    0 +9.0942019667e+00 -4.8805042632e+01 -1.8265369672e+01 5.2898586228e+01 0.0000000000e+00 0.0000e+00 -1.0000e+00
       22  1    1    2    0    0 -8.1125320340e+01 +1.8147135353e+02 +3.5507733252e+02 4.0693129865e+02 0.0000000000e+00 0.0000e+00 1.0000e+00
</event>
<event>
 6      1 +1.4834189e-01 1.00294300e+04 7.81653100e-03 6.93695100e-02
  1000022 -1    0    0    0    0 +0.0000000000e+00 +0.0000000000e+00 +4.4721471353e+01 1.0000100000e+04 1.0000000000e+04 0.0000e+00 -1.0000e+00
  1000022 -1    0    0    0    0 -0.0000000000e+00 -0.0000000000e+00 -4.4721471353e+01 1.0000100000e+04 1.0000000000e+04 0.0000e+00 -1.0000e+00
      -24  1    1    2    0    0 +1.5475597774e+03 +8.6385443785e+03 -1.7634365208e+03 8.9518417813e+03 7.9829010000e+01 0.0000e+00 1.0000e+00
       24  1    1    2    0    0 -1.3040580302e+02 -2.0476779449e+02 -6.9085704200e+01 2.6472821626e+02 7.9829010000e+01 0.0000e+00 -1.0000e+00
       22  1    1    2    0    0 -1.5575189741e+03 -9.4230022421e+03 +2.0323817186e+03 9.7647023539e+03 0.0000000000e+00 0.0000e+00 1.0000e+00
       22  1    1    2    0    0 +1.4036499974e+02 +9.8922565813e+02 -1.9985949362e+02 1.0189276486e+03 0.0000000000e+00 0.0000e+00 1.0000e+00
</event>
<event>
 6      1 +1.4834189e-01 6.82314700e+03 7.81653100e-03 7.17760500e-02
  1000022 -1    0    0    0    0 +0.0000000000e+00 +0.0000000000e+00 +4.4721471353e+01 1.0000100000e+04 1.0000000000e+04 0.0000e+00 -1.0000e+00
  1000022 -1    0    0    0    0 -0.0000000000e+00 -0.0000000000e+00 -4.4721471353e+01 1.0000100000e+04 1.0000000000e+04 0.0000e+00 -1.0000e+00
      -24  1    1    2    0    0 -1.2408244355e+03 +6.1155408708e+02 +7.9664913710e+03 8.0860992522e+03 7.9829010000e+01 0.0000e+00 -1.0000e+00
       24  1    1    2    0    0 +6.0902310766e+02 -9.4893006405e+02 -5.8750211647e+02 1.2739343860e+03 7.9829010000e+01 0.0000e+00 -1.0000e+00
       22  1    1    2    0    0 -1.8335108623e+03 +3.0097676912e+03 -5.5392773472e+03 6.5653680145e+03 0.0000000000e+00 0.0000e+00 -1.0000e+00
       22  1    1    2    0    0 +2.4653121902e+03 -2.6723917142e+03 -1.8397119073e+03 4.0747983473e+03 0.0000000000e+00 0.0000e+00 -1.0000e+00
</event>
<event>
 6      1 +1.4834189e-01 9.70788700e+03 7.81653100e-03 6.95667400e-02
  1000022 -1    0    0    0    0 +0.0000000000e+00 +0.0000000000e+00 +4.4721471353e+01 1.0000100000e+04 1.0000000000e+04 0.0000e+00 1.0000e+00
  1000022 -1    0    0    0    0 -0.0000000000e+00 -0.0000000000e+00 -4.4721471353e+01 1.0000100000e+04 1.0000000000e+04 0.0000e+00 1.0000e+00
      -24  1    1    2    0    0 -1.6084229489e+02 -1.4210666383e+02 -7.7134925127e+01 2.4163405233e+02 7.9829010000e+01 0.0000e+00 1.0000e+00
       24  1    1    2    0    0 -4.7126536065e+03 +8.1762323396e+03 -1.9371403234e+03 9.6342495602e+03 7.9829010000e+01 0.0000e+00 1.0000e+00
       22  1    1    2    0    0 +5.2077783531e+03 -8.0310954846e+03 +2.0475900984e+03 9.7883642795e+03 0.0000000000e+00 0.0000e+00 1.0000e+00
       22  1    1    2    0    0 -3.3428245175e+02 -3.0301912240e+00 -3.3314849912e+01 3.3595210794e+02 0.0000000000e+00 0.0000e+00 1.0000e+00
</event>
<event>
 6      1 +1.4834189e-01 7.26304100e+03 7.81653100e-03 7.13742800e-02
  1000022 -1    0    0    0    0 +0.0000000000e+00 +0.0000000000e+00 +4.4721471353e+01 1.0000100000e+04 1.0000000000e+04 0.0000e+00 1.0000e+00
  1000022 -1    0    0    0    0 -0.0000000000e+00 -0.0000000000e+00 -4.4721471353e+01 1.0000100000e+04 1.0000000000e+04 0.0000e+00 1.0000e+00
      -24  1    1    2    0    0 +2.4360428767e+03 +3.8338526572e+03 +1.3578088279e+03 4.7415976820e+03 7.9829010000e+01 0.0000e+00 -1.0000e+00
       24  1    1    2    0    0 -1.3136487870e+03 -5.3683702456e+03 -6.7201853272e+03 8.7012835681e+03 7.9829010000e+01 0.0000e+00 -1.0000e+00
       22  1    1    2    0    0 +5.6393107397e+01 -3.0941384443e+02 -3.3172559159e+02 4.5712030999e+02 0.0000000000e+00 0.0000e+00 -1.0000e+00
       22  1    1    2    0    0 -1.1787871971e+03 +1.8439314328e+03 +5.6941020909e+03 6.1001984400e+03 0.0000000000e+00 0.0000e+00 -1.0000e+00
</event>
<event>
 6      1 +1.4834189e-01 1.00446300e+04 7.81653100e-03 6.93603800e-02
  1000022 -1    0    0    0    0 +0.0000000000e+00 +0.0000000000e+00 +4.4721471353e+01 1.0000100000e+04 1.0000000000e+04 0.0000e+00 1.0000e+00
  1000022 -1    0    0    0    0 -0.0000000000e+00 -0.0000000000e+00 -4.4721471353e+01 1.0000100000e+04 1.0000000000e+04 0.0000e+00 1.0000e+00
      -24  1    1    2    0    0 -5.6044808478e+03 -1.4368120865e+03 +8.1013839006e+03 9.9555727270e+03 7.9829010000e+01 0.0000e+00 -1.0000e+00
       24  1    1    2    0    0 +2.4275296170e+02 +5.7025929638e+01 -5.3685477422e+02 5.9729948644e+02 7.9829010000e+01 0.0000e+00 -1.0000e+00
       22  1    1    2    0    0 +3.4836778129e+03 +1.4281456064e+03 -4.7071620912e+03 6.0276849561e+03 0.0000000000e+00 0.0000e+00 -1.0000e+00
       22  1    1    2    0    0 +1.8780500733e+03 -4.8359449496e+01 -2.8573670352e+03 3.4196428304e+03 0.0000000000e+00 0.0000e+00 -1.0000e+00
</event>
<event>
 6      1 +1.4834189e-01 1.02679000e+04 7.81653100e-03 6.92279900e-02
  1000022 -1    0    0    0    0 +0.0000000000e+00 +0.0000000000e+00 +4.4721471353e+01 1.0000100000e+04 1.0000000000e+04 0.0000e+00 1.0000e+00
  1000022 -1    0    0    0    0 -0.0000000000e+00 -0.0000000000e+00 -4.4721471353e+01 1.0000100000e+04 1.0000000000e+04 0.0000e+00 1.0000e+00
      -24  1    1    2    0    0 -2.0053087068e+03 -1.2201634678e+03 -9.3746593476e+02 2.5288884806e+03 7.9829010000e+01 0.0000e+00 -1.0000e+00
       24  1    1    2    0    0 +8.8951095609e+03 -6.8043977949e+02 +3.8891343186e+03 9.7323024415e+03 7.9829010000e+01 0.0000e+00 -1.0000e+00
       22  1    1    2    0    0 -2.4389758841e+01 -1.1960294853e+01 -1.2189720933e+01 2.9774121074e+01 0.0000000000e+00 0.0000e+00 1.0000e+00
       22  1    1    2    0    0 -6.8654110953e+03 +1.9125635421e+03 -2.9394786629e+03 7.7092349568e+03 0.0000000000e+00 0.0000e+00 -1.0000e+00
</event>
<event>
 6      1 +1.4834189e-01 1.00309200e+04 7.81653100e-03 6.93686200e-02
  1000022 -1    0    0    0    0 +0.0000000000e+00 +0.0000000000e+00 +4.4721471353e+01 1.0000100000e+04 1.0000000000e+04 0.0000e+00 -1.0000e+00
  1000022 -1    0    0    0    0 -0.0000000000e+00 -0.0000000000e+00 -4.4721471353e+01 1.0000100000e+04 1.0000000000e+04 0.0000e+00 -1.0000e+00
      -24  1    1    2    0    0 +1.4700953386e+02 +3.2947196653e+02 +4.0329448218e+02 5.4697595009e+02 7.9829010000e+01 0.0000e+00 1.0000e+00
       24  1    1    2    0    0 -6.2037777308e+03 -1.6784889311e+03 -6.5821708706e+03 9.1997570221e+03 7.9829010000e+01 0.0000e+00 -1.0000e+00
       22  1    1    2    0    0 +6.5679586795e+03 +1.7140919542e+03 +6.6233666009e+03 9.4839431448e+03 0.0000000000e+00 0.0000e+00 -1.0000e+00
       22  1    1    2    0    0 -5.1119048256e+02 -3.6507498969e+02 -4.4449021251e+02 7.6952388305e+02 0.0000000000e+00 0.0000e+00 -1.0000e+00
</event>
<event>
 6      1 +1.4834189e-01 1.00095100e+04 7.81653100e-03 6.93815100e-02
  1000022 -1    0    0    0    0 +0.0000000000e+00 +0.0000000000e+00 +4.4721471353e+01 1.0000100000e+04 1.0000000000e+04 0.0000e+00 -1.0000e+00
  1000022 -1    0    0    0    0 -0.0000000000e+00 -0.0000000000e+00 -4.4721471353e+01 1.0000100000e+04 1.0000000000e+04 0.0000e+00 -1.0000e+00
      -24  1    1    2    0    0 +3.4321355943e+03 +2.3453338821e+03 +8.0199407375e+03 9.0336021531e+03 7.9829010000e+01 0.0000e+00 1.0000e+00
       24  1    1    2    0    0 -3.8233881688e+03 -2.5191136488e+03 -8.8793728992e+03 9.9906889862e+03 7.9829010000e+01 0.0000e+00 1.0000e+00
       22  1    1    2    0    0 +3.9831371765e+02 +1.4574368773e+02 +8.4019659105e+02 9.4118295341e+02 0.0000000000e+00 0.0000e+00 -1.0000e+00
       22  1    1    2    0    0 -7.0611431489e+00 +2.8036078889e+01 +1.9235570616e+01 3.4725907317e+01 0.0000000000e+00 0.0000e+00 -1.0000e+00
</event>
<event>
 6      1 +1.4834189e-01 1.00870400e+04 7.81653100e-03 6.93349700e-02
  1000022 -1    0    0    0    0 +0.0000000000e+00 +0.0000000000e+00 +4.4721471353e+01 1.0000100000e+04 1.0000000000e+04 0.0000e+00 -1.0000e+00
  1000022 -1    0    0    0    0 -0.0000000000e+00 -0.0000000000e+00 -4.4721471353e+01 1.0000100000e+04 1.0000000000e+04 0.0000e+00 -1.0000e+00
      -24  1    1    2    0    0 -9.1320948756e+03 +2.3802213424e+03 -2.5589740542e+03 9.7783092269e+03 7.9829010000e+01 0.0000e+00 -1.0000e+00
       24  1    1    2    0    0 +6.1711838904e+02 -1.3328118208e+02 +3.1828992369e+02 7.1153364358e+02 7.9829010000e+01 0.0000e+00 1.0000e+00
       22  1    1    2    0    0 +8.5199421757e+03 -2.4152061813e+03 +2.4994765631e+03 9.2016313045e+03 0.0000000000e+00 0.0000e+00 -1.0000e+00
       22  1    1    2    0    0 -4.9656891469e+00 +1.6826602094e+02 -2.5879243256e+02 3.0872582499e+02 0.0000000000e+00 0.0000e+00 -1.0000e+00
</event>
<event>
 6      1 +1.4834189e-01 1.00510100e+04 7.81653100e-03 6.93565400e-02
  1000022 -1    0    0    0    0 +0.0000000000e+00 +0.0000000000e+00 +4.4721471353e+01 1.0000100000e+04 1.0000000000e+04 0.0000e+00 -1.0000e+00
  1000022 -1    0    0    0    0 -0.0000000000e+00 -0.0000000000e+00 -4.4721471353e+01 1.0000100000e+04 1.0000000000e+04 0.0000e+00 -1.0000e+00
      -24  1    1    2    0    0 -4.6482732918e+03 +2.1683886559e+03 +7.8957620844e+03 9.4158263324e+03 7.9829010000e+01 0.0000e+00 1.0000e+00
       24  1    1    2    0    0 +4.7021670578e+03 -2.4138734099e+03 -8.1880814468e+03 9.7461895287e+03 7.9829010000e+01 0.0000e+00 1.0000e+00
       22  1    1    2    0    0 -2.8329990318e+02 +1.0819781580e+02 +4.3875530799e+02 5.3335899990e+02 0.0000000000e+00 0.0000e+00 1.0000e+00
       22  1    1    2    0    0 +2.2940613718e+02 +1.3728693823e+02 -1.4643594552e+02 3.0482513893e+02 0.0000000000e+00 0.0000e+00 1.0000e+00
</event>
<event>
 6      1 +1.4834189e-01 1.03867900e+04 7.81653100e-03 6.91588700e-02
  1000022 -1    0    0    0    0 +0.0000000000e+00 +0.0000000000e+00 +4.4721471353e+01 1.0000100000e+04 1.0000000000e+04 0.0000e+00 1.0000e+00
  1000022 -1    0    0    0    0 -0.0000000000e+00 -0.0000000000e+00 -4.4721471353e+01 1.0000100000e+04 1.0000000000e+04 0.0000e+00 1.0000e+00
      -24  1    1    2    0    0 +2.1050551496e+03 +5.8227096634e+02 -1.1707162547e+03 2.4793640074e+03 7.9829010000e+01 0.0000e+00 -1.0000e+00
       24  1    1    2    0    0 -8.6806513375e+03 -8.1074876506e+02 +3.8325725393e+03 9.5239700831e+03 7.9829010000e+01 0.0000e+00 -1.0000e+00
       22  1    1    2    0    0 +6.2944104220e+03 +7.7536680872e+02 -3.2670849749e+03 7.1340479730e+03 0.0000000000e+00 0.0000e+00 -1.0000e+00
       22  1    1    2    0    0 +2.8118576590e+02 -5.4688901000e+02 +6.0522869022e+02 8.6281793657e+02 0.0000000000e+00 0.0000e+00 -1.0000e+00
</event>
<event>
 6      1 +1.4834189e-01 1.00720800e+04 7.81653100e-03 6.93439100e-02
  1000022 -1    0    0    0    0 +0.0000000000e+00 +0.0000000000e+00 +4.4721471353e+01 1.0000100000e+04 1.0000000000e+04 0.0000e+00 -1.0000e+00
  1000022 -1    0    0    0    0 -0.0000000000e+00 -0.0000000000e+00 -4.4721471353e+01 1.0000100000e+04 1.0000000000e+04 0.0000e+00 -1.0000e+00
      -24  1    1    2    0    0 +8.6811658711e+03 -2.6740166763e+03 -4.0060163446e+03 9.9281189402e+03 7.9829010000e+01 0.0000e+00 1.0000e+00
       24  1    1    2    0    0 -8.3010366377e+03 +2.7451078645e+03 +3.7591676162e+03 9.5173809573e+03 7.9829010000e+01 0.0000e+00 1.0000e+00
       22  1    1    2    0    0 -3.4862392700e+01 -1.3433748744e+02 +1.1322638062e+02 1.7911493580e+02 0.0000000000e+00 0.0000e+00 -1.0000e+00
       22  1    1    2    0    0 -3.4526684069e+02 +6.3246299213e+01 +1.3362234778e+02 3.7558516674e+02 0.0000000000e+00 0.0000e+00 1.0000e+00
</event>
<event>
 6      1 +1.4834189e-01 1.01244000e+04 7.81653100e-03 6.93126800e-02
  1000022 -1    0    0    0    0 +0.0000000000e+00 +0.0000000000e+00 +4.4721471353e+01 1.0000100000e+04 1.0000000000e+04 0.0000e+00 1.0000e+00
  1000022 -1    0    0    0    0 -0.0000000000e+00 -0.0000000000e+00 -4.4721471353e+01 1.0000100000e+04 1.0000000000e+04 0.0000e+00 1.0000e+00
      -24  1    1    2    0    0 +5.2453792858e+03 +3.3216026532e+03 -7.1401522215e+03 9.4623038662e+03 7.9829010000e+01 0.0000e+00 -1.0000e+00
       24  1    1    2    0    0 -1.4039647977e+03 -3.9448393771e+02 +2.2945975116e+03 2.7199788862e+03 7.9829010000e+01 0.0000e+00 1.0000e+00
       22  1    1    2    0    0 -3.5129237568e+03 -3.1834247501e+03 +5.3601203623e+03 7.1558169875e+03 0.0000000000e+00 0.0000e+00 -1.0000e+00
       22  1    1    2    0    0 -3.2849073134e+02 +2.5630603457e+02 -5.1456565230e+02 6.6210026013e+02 0.0000000000e+00 0.0000e+00 -1.0000e+00
</event>
<event>
 6      1 +1.4834189e-01 1.00046900e+04 7.81653100e-03 6.93844200e-02
  1000022 -1    0    0    0    0 +0.0000000000e+00 +0.0000000000e+00 +4.4721471353e+01 1.0000100000e+04 1.0000000000e+04 0.0000e+00 -1.0000e+00
  1000022 -1    0    0    0    0 -0.0000000000e+00 -0.0000000000e+00 -4.4721471353e+01 1.0000100000e+04 1.0000000000e+04 0.0000e+00 -1.0000e+00
      -24  1    1    2    0    0 -5.9782005808e+03 -7.1415188221e+03 +3.1948024964e+03 9.8464871367e+03 7.9829010000e+01 0.0000e+00 1.0000e+00
       24  1    1    2    0    0 +6.0802989648e+03 +7.1842873163e+03 -3.2461265114e+03 9.9562909632e+03 7.9829010000e+01 0.0000e+00 1.0000e+00
       22  1    1    2    0    0 -1.2471804914e+02 -7.0848984894e+01 +6.6743982075e+01 1.5820533994e+02 0.0000000000e+00 0.0000e+00 -1.0000e+00
       22  1    1    2    0    0 +2.2619665173e+01 +2.8080490691e+01 -1.5419967068e+01 3.9216560206e+01 0.0000000000e+00 0.0000e+00 1.0000e+00
</event>
<event>
 6      1 +1.4834189e-01 9.76125700e+03 7.81653100e-03 6.95334800e-02
  1000022 -1    0    0    0    0 +0.0000000000e+00 +0.0000000000e+00 +4.4721471353e+01 1.0000100000e+04 1.0000000000e+04 0.0000e+00 1.0000e+00
  1000022 -1    0    0    0    0 -0.0000000000e+00 -0.0000000000e+00 -4.4721471353e+01 1.0000100000e+04 1.0000000000e+04 0.0000e+00 1.0000e+00
      -24  1    1    2    0    0 -3.8868528643e+02 -1.5287157659e+02 +1.4710840931e+02 4.4995502636e+02 7.9829010000e+01 0.0000e+00 -1.0000e+00
       24  1    1    2    0    0 -4.0934895567e+03 -2.4212549611e+03 -8.4767760720e+03 9.7201459651e+03 7.9829010000e+01 0.0000e+00 1.0000e+00
       22  1    1    2    0    0 -1.7988270248e+01 -1.1090194350e+01 +7.7799324777e+00 2.2518828269e+01 0.0000000000e+00 0.0000e+00 -1.0000e+00
       22  1    1    2    0    0 +4.5001631134e+03 +2.5852167320e+03 +8.3218877302e+03 9.8075801803e+03 0.0000000000e+00 0.0000e+00 1.0000e+00
</event>
<event>
 6      1 +1.4834189e-01 1.00472900e+04 7.81653100e-03 6.93587800e-02
  1000022 -1    0    0    0    0 +0.0000000000e+00 +0.0000000000e+00 +4.4721471353e+01 1.0000100000e+04 1.0000000000e+04 0.0000e+00 1.0000e+00
  1000022 -1    0    0    0    0 -0.0000000000e+00 -0.0000000000e+00 -4.4721471353e+01 1.0000100000e+04 1.0000000000e+04 0.0000e+00 1.0000e+00
      -24  1    1    2    0    0 -4.7600664789e+03 +1.8267972020e+03 -3.8250784838e+03 6.3744034214e+03 7.9829010000e+01 0.0000e+00 -1.0000e+00
       24  1    1    2    0    0 +6.1844684929e+03 -2.8317310705e+03 +4.7208839191e+03 8.2800645555e+03 7.9829010000e+01 0.0000e+00 -1.0000e+00
       22  1    1    2    0    0 +9.3207986312e+02 -2.6833787840e+02 +1.4772659102e+03 1.7672273928e+03 0.0000000000e+00 0.0000e+00 -1.0000e+00
       22  1    1    2    0    0 -2.3564818771e+03 +1.2732717469e+03 -2.3730713456e+03 3.5785046304e+03 0.0000000000e+00 0.0000e+00 1.0000e+00
</event>
<event>
 6      1 +1.4834189e-01 9.88406700e+03 7.81653100e-03 6.94577400e-02
  1000022 -1    0    0    0    0 +0.0000000000e+00 +0.0000000000e+00 +4.4721471353e+01 1.0000100000e+04 1.0000000000e+04 0.0000e+00 1.0000e+00
  1000022 -1    0    0    0    0 -0.0000000000e+00 -0.0000000000e+00 -4.4721471353e+01 1.0000100000e+04 1.0000000000e+04 0.0000e+00 1.0000e+00
      -24  1    1    2    0    0 +9.7465723203e+01 -1.9254851975e+02 -2.4940856788e+01 2.3145024699e+02 7.9829010000e+01 0.0000e+00 1.0000e+00
       24  1    1    2    0    0 -9.6617885243e+03 +3.6971812660e+01 +1.7917631173e+03 9.8269177335e+03 7.9829010000e+01 0.0000e+00 1.0000e+00
       22  1    1    2    0    0 -1.0575514759e+02 -6.4571156977e+00 +1.6879078741e+01 1.0728815817e+02 0.0000000000e+00 0.0000e+00 -1.0000e+00
       22  1    1    2    0    0 +9.6700779486e+03 +1.6203382279e+02 -1.7837013392e+03 9.8345438613e+03 0.0000000000e+00 0.0000e+00 1.0000e+00
</event>
<event>
 6      1 +1.4834189e-01 7.48040900e+03 7.81653100e-03 7.11862300e-02
  1000022 -1    0    0    0    0 +0.0000000000e+00 +0.0000000000e+00 +4.4721471353e+01 1.0000100000e+04 1.0000000000e+04 0.0000e+00 -1.0000e+00
  1000022 -1    0    0    0    0 -0.0000000000e+00 -0.0000000000e+00 -4.4721471353e+01 1.0000100000e+04 1.0000000000e+04 0.0000e+00 -1.0000e+00
      -24  1    1    2    0    0 -2.3726374130e+03 -3.6402792303e+03 +1.1740412669e+03 4.5017537399e+03 7.9829010000e+01 0.0000e+00 1.0000e+00
       24  1    1    2    0    0 +6.8830078948e+02 +1.9333844698e+03 +3.0532578693e+03 3.6797404490e+03 7.9829010000e+01 0.0000e+00 1.0000e+00
       22  1    1    2    0    0 +1.6596198143e+03 +8.4288541074e+02 -7.8636935097e+03 8.0809943298e+03 0.0000000000e+00 0.0000e+00 1.0000e+00
       22  1    1    2    0    0 +2.4716809193e+01 +8.6400934972e+02 +3.6363943736e+03 3.7377114813e+03 0.0000000000e+00 0.0000e+00 1.0000e+00
</event>
<event>
 6      1 +1.4834189e-01 1.00076300e+04 7.81653100e-03 6.93826500e-02
  1000022 -1    0    0    0    0 +0.0000000000e+00 +0.0000000000e+00 +4.4721471353e+01 1.0000100000e+04 1.0000000000e+04 0.0000e+00 -1.0000e+00
  1000022 -1    0    0    0    0 -0.0000000000e+00 -0.0000000000e+00 -4.4721471353e+01 1.0000100000e+04 1.0000000000e+04 0.0000e+00 -1.0000e+00
      -24  1    1    2    0    0 -4.3631338189e+03 +3.0388745192e+03 +8.3568106189e+03 9.9052688734e+03 7.9829010000e+01 0.0000e+00 1.0000e+00
       24  1    1    2    0    0 +4.3639109428e+03 -3.0559485162e+03 -8.4535493962e+03 9.9925677438e+03 7.9829010000e+01 0.0000e+00 1.0000e+00
       22  1    1    2    0    0 -1.1096913749e+01 +6.4938324750e+00 +1.7262363329e+01 2.1524417360e+01 0.0000000000e+00 0.0000e+00 1.0000e+00
       22  1    1    2    0    0 +1.0319789868e+01 +1.0580164580e+01 +7.9476413976e+01 8.0838965381e+01 0.0000000000e+00 0.0000e+00 -1.0000e+00
</event>
<event>
 6      1 +1.4834189e-01 1.00029900e+04 7.81653100e-03 6.93854500e-02
  1000022 -1    0    0    0    0 +0.0000000000e+00 +0.0000000000e+00 +4.4721471353e+01 1.0000100000e+04 1.0000000000e+04 0.0000e+00 1.0000e+00
  1000022 -1    0    0    0    0 -0.0000000000e+00 -0.0000000000e+00 -4.4721471353e+01 1.0000100000e+04 1.0000000000e+04 0.0000e+00 1.0000e+00
      -24  1    1    2    0    0 +8.6164152442e+03 +3.7747605256e+03 +2.2742959267e+03 9.6783378387e+03 7.9829010000e+01 0.0000e+00 1.0000e+00
       24  1    1    2    0    0 -3.5097357044e+03 -1.7142238513e+03 -8.1623813287e+02 3.9911684364e+03 7.9829010000e+01 0.0000e+00 1.0000e+00
       22  1    1    2    0    0 +2.9252126866e+02 +1.2234165799e+02 +3.3811157849e+01 3.1887202494e+02 0.0000000000e+00 0.0000e+00 1.0000e+00
       22  1    1    2    0    0 -5.3992008084e+03 -2.1828783323e+03 -1.4918689517e+03 6.0118217000e+03 0.0000000000e+00 0.0000e+00 1.0000e+00
</event>
<event>
 6      1 +1.4834189e-01 1.00133500e+04 7.81653100e-03 6.93792000e-02
  1000022 -1    0    0    0    0 +0.0000000000e+00 +0.0000000000e+00 +4.4721471353e+01 1.0000100000e+04 1.0000000000e+04 0.0000e+00 1.0000e+00
  1000022 -1    0    0    0    0 -0.0000000000e+00 -0.0000000000e+00 -4.4721471353e+01 1.0000100000e+04 1.0000000000e+04 0.0000e+00 1.0000e+00
      -24  1    1    2    0    0 +9.3790399870e+02 -1.6581659341e+02 +1.3647132520e+03 1.6661254408e+03 7.9829010000e+01 0.0000e+00 -1.0000e+00
       24  1    1    2    0    0 -5.3748000660e+03 +8.7012711031e+02 -8.3716854764e+03 9.9868457145e+03 7.9829010000e+01 0.0000e+00 -1.0000e+00
       22  1    1    2    0    0 +4.4039106135e+03 -7.6066583002e+02 +6.9324491821e+03 8.2481448132e+03 0.0000000000e+00 0.0000e+00 -1.0000e+00
       22  1    1    2    0    0 +3.2985453775e+01 +5.6355313126e+01 +7.4523042358e+01 9.9084031613e+01 0.0000000000e+00 0.0000e+00 -1.0000e+00
</event>
<event>
 6      1 +1.4834189e-01 1.00054500e+04 7.81653100e-03 6.93839700e-02
  1000022 -1    0    0    0    0 +0.0000000000e+00 +0.0000000000e+00 +4.4721471353e+01 1.0000100000e+04 1.0000000000e+04 0.0000e+00 1.0000e+00
  1000022 -1    0    0    0    0 -0.0000000000e+00 -0.0000000000e+00 -4.4721471353e+01 1.0000100000e+04 1.0000000000e+04 0.0000e+00 1.0000e+00
      -24  1    1    2    0    0 +2.2341051988e+03 -8.2871444242e+03 -5.0834609003e+03 9.9757674463e+03 7.9829010000e+01 0.0000e+00 1.0000e+00
       24  1    1    2    0    0 -2.2222414298e+03 +8.2852046085e+03 +5.0586265508e+03 9.9588677884e+03 7.9829010000e+01 0.0000e+00 1.0000e+00
       22  1    1    2    0    0 -8.3909925145e+00 +3.0392005332e+01 +1.7139336090e+01 3.5886481927e+01 0.0000000000e+00 0.0000e+00 -1.0000e+00
       22  1    1    2    0    0 -3.4727765709e+00 -2.8452189617e+01 +7.6950134518e+00 2.9678283359e+01 0.0000000000e+00 0.0000e+00 1.0000e+00
</event>
<event>
 6      1 +1.4834189e-01 1.00022500e+04 7.81653100e-03 6.93858900e-02
  1000022 -1    0    0    0    0 +0.0000000000e+00 +0.0000000000e+00 +4.4721471353e+01 1.0000100000e+04 1.0000000000e+04 0.0000e+00 -1.0000e+00
  1000022 -1    0    0    0    0 -0.0000000000e+00 -0.0000000000e+00 -4.4721471353e+01 1.0000100000e+04 1.0000000000e+04 0.0000e+00 -1.0000e+00
      -24  1    1    2    0    0 -3.5734781852e+03 -8.2173063919e+03 -4.2274804521e+03 9.9081700794e+03 7.9829010000e+01 0.0000e+00 1.0000e+00
       24  1    1    2    0    0 +3.5774898991e+03 +8.2575462735e+03 +4.2174082869e+03 9.9387328048e+03 7.9829010000e+01 0.0000e+00 1.0000e+00
       22  1    1    2    0    0 +2.2558880755e+01 +4.8797941642e+01 +2.4825529659e+01 5.9215277862e+01 0.0000000000e+00 0.0000e+00 1.0000e+00
       22  1    1    2    0    0 -2.6570594699e+01 -8.9037823187e+01 -1.4753364457e+01 9.4081837904e+01 0.0000000000e+00 0.0000e+00 1.0000e+00
</event>
<event>
 6      1 +1.4834189e-01 1.09623500e+04 7.81653100e-03 6.88369000e-02
  1000022 -1    0    0    0    0 +0.0000000000e+00 +0.0000000000e+00 +4.4721471353e+01 1.0000100000e+04 1.0000000000e+04 0.0000e+00 1.0000e+00
  1000022 -1    0    0    0    0 -0.0000000000e+00 -0.0000000000e+00 -4.4721471353e+01 1.0000100000e+04 1.0000000000e+04 0.0000e+00 1.0000e+00
      -24  1    1    2    0    0 +7.5868402595e+03 -6.3980079578e-01 -4.9108228654e+03 9.0378481631e+03 7.9829010000e+01 0.0000e+00 -1.0000e+00
       24  1    1    2    0    0 -3.1617881533e+03 +8.5631774652e+02 +3.3055594961e+02 3.2932999129e+03 7.9829010000e+01 0.0000e+00 -1.0000e+00
       22  1    1    2    0    0 -1.4878878801e+03 -1.5043605487e+03 +4.1125937005e+03 4.6249689675e+03 0.0000000000e+00 0.0000e+00 -1.0000e+00
       22  1    1    2    0    0 -2.9371642260e+03 +6.4868260302e+02 +4.6767321529e+02 3.0440829566e+03 0.0000000000e+00 0.0000e+00 -1.0000e+00
</event>
<event>
 6      1 +1.4834189e-01 1.01508500e+04 7.81653100e-03 6.92969700e-02
  1000022 -1    0    0    0    0 +0.0000000000e+00 +0.0000000000e+00 +4.4721471353e+01 1.0000100000e+04 1.0000000000e+04 0.0000e+00 -1.0000e+00
  1000022 -1    0    0    0    0 -0.0000000000e+00 -0.0000000000e+00 -4.4721471353e+01 1.0000100000e+04 1.0000000000e+04 0.0000e+00 -1.0000e+00
      -24  1    1    2    0    0 -2.5982602870e+03 +9.0179432710e+03 -7.6002091262e+02 9.4158516245e+03 7.9829010000e+01 0.0000e+00 1.0000e+00
       24  1    1    2    0    0 +3.1552446913e+03 -8.5257723303e+03 +6.8139140068e+02 9.1167444739e+03 7.9829010000e+01 0.0000e+00 1.0000e+00
       22  1    1    2    0    0 -4.6902447294e+02 -9.1604750135e+02 +1.0124279445e+02 1.0341069018e+03 0.0000000000e+00 0.0000e+00 1.0000e+00
       22  1    1    2    0    0 -8.7959931437e+01 +4.2387656070e+02 -2.2613282504e+01 4.3349699976e+02 0.0000000000e+00 0.0000e+00 1.0000e+00
</event>
<event>
 6      1 +1.4834189e-01 1.03081300e+04 7.81653100e-03 6.92044900e-02
  1000022 -1    0    0    0    0 +0.0000000000e+00 +0.0000000000e+00 +4.4721471353e+01 1.0000100000e+04 1.0000000000e+04 0.0000e+00 -1.0000e+00
  1000022 -1    0    0    0    0 -0.0000000000e+00 -0.0000000000e+00 -4.4721471353e+01 1.0000100000e+04 1.0000000000e+04 0.0000e+00 -1.0000e+00
      -24  1    1    2    0    0 -6.5767918237e+03 -5.6912544728e+03 -2.6280843123e+03 9.0861305290e+03 7.9829010000e+01 0.0000e+00 1.0000e+00
       24  1    1    2    0    0 +7.1663034109e+03 +5.5544580858e+03 +3.2046234908e+03 9.6168546622e+03 7.9829010000e+01 0.0000e+00 1.0000e+00
       22  1    1    2    0    0 -4.2809812788e+02 -3.9540753615e+02 -1.6596795598e+02 6.0593769412e+02 0.0000000000e+00 0.0000e+00 1.0000e+00
       22  1    1    2    0    0 -1.6141345933e+02 +5.3220392312e+02 -4.1057122247e+02 6.9127711474e+02 0.0000000000e+00 0.0000e+00 -1.0000e+00
</event>
<event>
 6      1 +1.4834189e-01 1.01294000e+04 7.81653100e-03 6.93097100e-02
  1000022 -1    0    0    0    0 +0.0000000000e+00 +0.0000000000e+00 +4.4721471353e+01 1.0000100000e+04 1.0000000000e+04 0.0000e+00 1.0000e+00
  1000022 -1    0    0    0    0 -0.0000000000e+00 -0.0000000000e+00 -4.4721471353e+01 1.0000100000e+04 1.0000000000e+04 0.0000e+00 1.0000e+00
      -24  1    1    2    0    0 -4.2859741174e+03 +1.9490815360e+03 -8.6751278617e+03 9.8708008316e+03 7.9829010000e+01 0.0000e+00 1.0000e+00
       24  1    1    2    0    0 +4.5677292365e+02 -1.7735562172e+02 +7.0231428038e+01 5.0139968554e+02 7.9829010000e+01 0.0000e+00 1.0000e+00
       22  1    1    2    0    0 +5.5155227757e+01 -1.4518476195e+00 -1.1343719495e+01 5.6328385229e+01 0.0000000000e+00 0.0000e+00 -1.0000e+00
       22  1    1    2    0    0 +3.7740459660e+03 -1.7702740666e+03 +8.6162401532e+03 9.5716710976e+03 0.0000000000e+00 0.0000e+00 1.0000e+00
</event>
<event>
 6      1 +1.4834189e-01 1.00004600e+04 7.81653100e-03 6.93869800e-02
  1000022 -1    0    0    0    0 +0.0000000000e+00 +0.0000000000e+00 +4.4721471353e+01 1.0000100000e+04 1.0000000000e+04 0.0000e+00 -1.0000e+00
  1000022 -1    0    0    0    0 -0.0000000000e+00 -0.0000000000e+00 -4.4721471353e+01 1.0000100000e+04 1.0000000000e+04 0.0000e+00 -1.0000e+00
      -24  1    1    2    0    0 +3.0297019821e+03 +8.8523902613e+02 +9.3738855215e+03 9.8913520145e+03 7.9829010000e+01 0.0000e+00 -1.0000e+00
       24  1    1    2    0    0 -2.8292400059e+03 -8.4482374709e+02 -8.8357262373e+03 9.3163703762e+03 7.9829010000e+01 0.0000e+00 -1.0000e+00
       22  1    1    2    0    0 +3.7052628466e+01 +7.2346911605e+00 +1.0160154482e+02 1.0838870764e+02 0.0000000000e+00 0.0000e+00 -1.0000e+00
       22  1    1    2    0    0 -2.3751460465e+02 -4.7649970203e+01 -6.3976082897e+02 6.8408890165e+02 0.0000000000e+00 0.0000e+00 -1.0000e+00
</event>
<event>
 6      1 +1.4834189e-01 1.00088200e+04 7.81653100e-03 6.93819300e-02
  1000022 -1    0    0    0    0 +0.0000000000e+00 +0.0000000000e+00 +4.4721471353e+01 1.0000100000e+04 1.0000000000e+04 0.0000e+00 1.0000e+00
  1000022 -1    0    0    0    0 -0.0000000000e+00 -0.0000000000e+00 -4.4721471353e+01 1.0000100000e+04 1.0000000000e+04 0.0000e+00 1.0000e+00
      -24  1    1    2    0    0 +6.7647601882e+03 +6.9718570962e+03 -2.3350861037e+03 9.9913848668e+03 7.9829010000e+01 0.0000e+00 -1.0000e+00
       24  1    1    2    0    0 -6.7375533080e+03 -6.9203502477e+03 +2.3517514767e+03 9.9409747916e+03 7.9829010000e+01 0.0000e+00 -1.0000e+00
       22  1    1    2    0    0 -1.7806228739e+01 -1.9034590271e+01 +6.4951334682e+00 2.6861946457e+01 0.0000000000e+00 0.0000e+00 -1.0000e+00
       22  1    1    2    0    0 -9.4006515163e+00 -3.2472258233e+01 -2.3160506441e+01 4.0978395067e+01 0.0000000000e+00 0.0000e+00 -1.0000e+00
</event>
<event>
 6      1 +1.4834189e-01 1.00657000e+04 7.81653100e-03 6.93477400e-02
  1000022 -1    0    0    0    0 +0.0000000000e+00 +0.0000000000e+00 +4.4721471353e+01 1.0000100000e+04 1.0000000000e+04 0.0000e+00 -1.0000e+00
  1000022 -1    0    0    0    0 -0.0000000000e+00 -0.0000000000e+00 -4.4721471353e+01 1.0000100000e+04 1.0000000000e+04 0.0000e+00 -1.0000e+00
      -24  1    1    2    0    0 -5.4514030120e+03 +9.2421860645e+02 -7.0932106717e+03 8.9939971724e+03 7.9829010000e+01 0.0000e+00 -1.0000e+00
       24  1    1    2    0    0 +5.8514741974e+03 -7.9048334648e+02 +7.9889509282e+03 9.9345016890e+03 7.9829010000e+01 0.0000e+00 -1.0000e+00
       22  1    1    2    0    0 -4.7400893363e+01 -2.1387439831e+02 -4.2433411729e+02 4.7754428700e+02 0.0000000000e+00 0.0000e+00 -1.0000e+00
       22  1    1    2    0    0 -3.5267029203e+02 +8.0139138341e+01 -4.7140613915e+02 5.9415685169e+02 0.0000000000e+00 0.0000e+00 1.0000e+00
</event>
<event>
 6      1 +1.4834189e-01 9.20116000e+03 7.81653100e-03 6.98937000e-02
  1000022 -1    0    0    0    0 +0.0000000000e+00 +0.0000000000e+00 +4.4721471353e+01 1.0000100000e+04 1.0000000000e+04 0.0000e+00 1.0000e+00
  1000022 -1    0    0    0    0 -0.0000000000e+00 -0.0000000000e+00 -4.4721471353e+01 1.0000100000e+04 1.0000000000e+04 0.0000e+00 1.0000e+00
      -24  1    1    2    0    0 -5.1466377778e+03 -7.4579857501e+03 +2.4598759276e+03 9.3897174672e+03 7.9829010000e+01 0.0000e+00 1.0000e+00
       24  1    1    2    0    0 +1.4607572680e+03 -2.6303528179e+02 -3.8141873602e+02 1.5345527944e+03 7.9829010000e+01 0.0000e+00 1.0000e+00
       22  1    1    2    0    0 +3.7623296615e+03 +7.8281450656e+03 -2.1154075050e+03 8.9392353455e+03 0.0000000000e+00 0.0000e+00 1.0000e+00
       22  1    1    2    0    0 -7.6449151694e+01 -1.0712403374e+02 +3.6950313360e+01 1.3669439292e+02 0.0000000000e+00 0.0000e+00 -1.0000e+00
</event>
<event>
 6      1 +1.4834189e-01 1.00013100e+04 7.81653100e-03 6.93864600e-02
  1000022 -1    0    0    0    0 +0.0000000000e+00 +0.0000000000e+00 +4.4721471353e+01 1.0000100000e+04 1.0000000000e+04 0.0000e+00 1.0000e+00
  1000022 -1    0    0    0    0 -0.0000000000e+00 -0.0000000000e+00 -4.4721471353e+01 1.0000100000e+04 1.0000000000e+04 0.0000e+00 1.0000e+00
      -24  1    1    2    0    0 +9.5600314170e+03 -2.8333171228e+03 +4.5323750707e+02 9.9816673718e+03 7.9829010000e+01 0.0000e+00 -1.0000e+00
       24  1    1    2    0    0 -7.6491651008e+03 +2.3531448931e+03 -3.3700984384e+02 8.0104285736e+03 7.9829010000e+01 0.0000e+00 -1.0000e+00
       22  1    1    2    0    0 +1.6350253349e+01 -5.2627985050e+00 +1.2505442652e+00 1.7221837697e+01 0.0000000000e+00 0.0000e+00 1.0000e+00
       22  1    1    2    0    0 -1.9272165695e+03 +4.8543502821e+02 -1.1747820750e+02 1.9908822169e+03 0.0000000000e+00 0.0000e+00 1.0000e+00
</event>
<event>
 6      1 +1.4834189e-01 1.00086200e+04 7.81653100e-03 6.93820500e-02
  1000022 -1    0    0    0    0 +0.0000000000e+00 +0.0000000000e+00 +4.4721471353e+01 1.0000100000e+04 1.0000000000e+04 0.0000e+00 1.0000e+00
  1000022 -1    0    0    0    0 -0.0000000000e+00 -0.0000000000e+00 -4.4721471353e+01 1.0000100000e+04 1.0000000000e+04 0.0000e+00 1.0000e+00
      -24  1    1    2    0    0 +1.1883883795e+03 -4.6576430951e+03 +8.3599139079e+03 9.6436735407e+03 7.9829010000e+01 0.0000e+00 1.0000e+00
       24  1    1    2    0    0 -1.2181254972e+03 +4.9126051979e+03 -8.6143921379e+03 9.9915786608e+03 7.9829010000e+01 0.0000e+00 1.0000e+00
       22  1    1    2    0    0 +7.5859859075e+00 -1.6787609863e+01 +3.8445666581e+01 4.2631447383e+01 0.0000000000e+00 0.0000e+00 1.0000e+00
       22  1    1    2    0    0 +2.2151131789e+01 -2.3817449298e+02 +2.1603256347e+02 3.2231635116e+02 0.0000000000e+00 0.0000e+00 -1.0000e+00
</event>
<event>
 6      1 +1.4834189e-01 1.03753000e+04 7.81653100e-03 6.91655100e-02
  1000022 -1    0    0    0    0 +0.0000000000e+00 +0.0000000000e+00 +4.4721471353e+01 1.0000100000e+04 1.0000000000e+04 0.0000e+00 -1.0000e+00
  1000022 -1    0    0    0    0 -0.0000000000e+00 -0.0000000000e+00 -4.4721471353e+01 1.0000100000e+04 1.0000000000e+04 0.0000e+00 -1.0000e+00
      -24  1    1    2    0    0 -4.5644664587e+03 -1.9275670515e+03 -2.3966726515e+03 5.5045691257e+03 7.9829010000e+01 0.0000e+00 -1.0000e+00
       24  1    1    2    0    0 +6.9189099657e+03 +2.2680643257e+03 +7.3850399488e+02 7.3189611094e+03 7.9829010000e+01 0.0000e+00 -1.0000e+00
       22  1    1    2    0    0 -4.5547323932e+03 -9.8659985151e+02 +1.4159851414e+03 4.8707268823e+03 0.0000000000e+00 0.0000e+00 -1.0000e+00
       22  1    1    2    0    0 +2.2002888862e+03 +6.4610257735e+02 +2.4218351521e+02 2.3059428827e+03 0.0000000000e+00 0.0000e+00 1.0000e+00
</event>
<event>
 6      1 +1.4834189e-01 1.00524500e+04 7.81653100e-03 6.93556800e-02
  1000022 -1    0    0    0    0 +0.0000000000e+00 +0.0000000000e+00 +4.4721471353e+01 1.0000100000e+04 1.0000000000e+04 0.0000e+00 -1.0000e+00
  1000022 -1    0    0    0    0 -0.0000000000e+00 -0.0000000000e+00 -4.4721471353e+01 1.0000100000e+04 1.0000000000e+04 0.0000e+00 -1.0000e+00
      -24  1    1    2    0    0 +5.5574567111e+03 +2.9147370598e+03 +7.3700501844e+03 9.6801358263e+03 7.9829010000e+01 0.0000e+00 -1.0000e+00
       24  1    1    2    0    0 -1.2256222264e+03 +1.1801993525e+01 -2.3405590918e+03 2.6432704481e+03 7.9829010000e+01 0.0000e+00 -1.0000e+00
       22  1    1    2    0    0 +1.4981685227e+02 -1.4064709966e+02 +1.7143177573e+02 2.6761081742e+02 0.0000000000e+00 0.0000e+00 -1.0000e+00
       22  1    1    2    0    0 -4.4816513370e+03 -2.7858919537e+03 -5.2009228684e+03 7.4091829082e+03 0.0000000000e+00 0.0000e+00 -1.0000e+00
</event>
<event>
 6      1 +1.4834189e-01 1.00001500e+04 7.81653100e-03 6.93871600e-02
  1000022 -1    0    0    0    0 +0.0000000000e+00 +0.0000000000e+00 +4.4721471353e+01 1.0000100000e+04 1.0000000000e+04 0.0000e+00 1.0000e+00
  1000022 -1    0    0    0    0 -0.0000000000e+00 -0.0000000000e+00 -4.4721471353e+01 1.0000100000e+04 1.0000000000e+04 0.0000e+00 1.0000e+00
      -24  1    1    2    0    0 +6.7303239438e+03 +5.5175198272e+03 +2.9440718580e+03 9.1877210019e+03 7.9829010000e+01 0.0000e+00 -1.0000e+00
       24  1    1    2    0    0 -7.2814436733e+03 -6.0120556843e+03 -3.2118721685e+03 9.9743035354e+03 7.9829010000e+01 0.0000e+00 -1.0000e+00
       22  1    1    2    0    0 -2.0243273003e+01 -1.5628624487e+01 -2.9718204765e+00 2.5746372991e+01 0.0000000000e+00 0.0000e+00 1.0000e+00
       22  1    1    2    0    0 +5.7136300255e+02 +5.1016448154e+02 +2.7077213098e+02 8.1242908972e+02 0.0000000000e+00 0.0000e+00 -1.0000e+00
</event>
<event>
 6      1 +1.4834189e-01 1.00830200e+04 7.81653100e-03 6.93373700e-02
  1000022 -1    0    0    0    0 +0.0000000000e+00 +0.0000000000e+00 +4.4721471353e+01 1.0000100000e+04 1.0000000000e+04 0.0000e+00 1.0000e+00
  1000022 -1    0    0    0    0 -0.0000000000e+00 -0.0000000000e+00 -4.4721471353e+01 1.0000100000e+04 1.0000000000e+04 0.0000e+00 1.0000e+00
      -24  1    1    2    0    0 -3.7524440397e+03 +2.8136547589e+03 +7.1966655366e+02 4.7457119585e+03 7.9829010000e+01 0.0000e+00 1.0000e+00
       24  1    1    2    0    0 +7.4955693121e+03 -5.7258442383e+03 -1.3467450832e+03 9.5283233858e+03 7.9829010000e+01 0.0000e+00 1.0000e+00
       22  1    1    2    0    0 +4.7727051331e+02 -5.5953074447e+01 +2.7706769833e+02 5.5469306727e+02 0.0000000000e+00 0.0000e+00 -1.0000e+00
       22  1    1    2    0    0 -4.2203957858e+03 +2.9681425538e+03 +3.5001083123e+02 5.1714715885e+03 0.0000000000e+00 0.0000e+00 1.0000e+00
</event>
<event>
 6      1 +1.4834189e-01 7.70401100e+03 7.81653100e-03 7.09994100e-02
  1000022 -1    0    0    0    0 +0.0000000000e+00 +0.0000000000e+00 +4.4721471353e+01 1.0000100000e+04 1.0000000000e+04 0.0000e+00 -1.0000e+00
  1000022 -1    0    0    0    0 -0.0000000000e+00 -0.0000000000e+00 -4.4721471353e+01 1.0000100000e+04 1.0000000000e+04 0.0000e+00 -1.0000e+00
      -24  1    1    2    0    0 -8.7198257537e+02 -8.4077110502e+03 -1.6208144276e+03 8.6071697320e+03 7.9829010000e+01 0.0000e+00 -1.0000e+00
       24  1    1    2    0    0 +3.3663946444e+02 +3.8965357957e+02 -5.0101100438e+02 7.2286979356e+02 7.9829010000e+01 0.0000e+00 1.0000e+00
       22  1    1    2    0    0 -2.1078160888e+03 +2.2813066129e+03 -1.4346869891e+03 3.4213411526e+03 0.0000000000e+00 0.0000e+00 1.0000e+00
       22  1    1    2    0    0 +2.6431591997e+03 +5.7367508578e+03 +3.5565124211e+03 7.2488193218e+03 0.0000000000e+00 0.0000e+00 -1.0000e+00
</event>
<event>
 6      1 +1.4834189e-01 1.00391300e+04 7.81653100e-03 6.93636800e-02
  1000022 -1    0    0    0    0 +0.0000000000e+00 +0.0000000000e+00 +4.4721471353e+01 1.0000100000e+04 1.0000000000e+04 0.0000e+00 -1.0000e+00
  1000022 -1    0    0    0    0 -0.0000000000e+00 -0.0000000000e+00 -4.4721471353e+01 1.0000100000e+04 1.0000000000e+04 0.0000e+00 -1.0000e+00
      -24  1    1    2    0    0 -3.9801866896e+03 -2.9888639775e+01 +1.7138267586e+03 4.3343228126e+03 7.9829010000e+01 0.0000e+00 1.0000e+00
       24  1    1    2    0    0 +8.5261064682e+03 -6.9143752469e+02 -4.9626760591e+03 9.8897474030e+03 7.9829010000e+01 0.0000e+00 1.0000e+00
       22  1    1    2    0    0 +6.1154493581e+01 -4.3304334947e+00 -3.6441739077e+01 7.1320579683e+01 0.0000000000e+00 0.0000e+00 1.0000e+00
       22  1    1    2    0    0 -4.6070742722e+03 +7.2565659796e+02 +3.2852910396e+03 5.7048092047e+03 0.0000000000e+00 0.0000e+00 1.0000e+00
</event>
<event>
 6      1 +1.4834189e-01 1.00032200e+04 7.81653100e-03 6.93853100e-02
  1000022 -1    0    0    0    0 +0.0000000000e+00 +0.0000000000e+00 +4.4721471353e+01 1.0000100000e+04 1.0000000000e+04 0.0000e+00 1.0000e+00
  1000022 -1    0    0    0    0 -0.0000000000e+00 -0.0000000000e+00 -4.4721471353e+01 1.0000100000e+04 1.0000000000e+04 0.0000e+00 1.0000e+00
      -24  1    1    2    0    0 +8.0647936784e+03 -5.8471735697e+03 +1.7553206622e+02 9.9633086877e+03 7.9829010000e+01 0.0000e+00 1.0000e+00
       24  1    1    2    0    0 -8.0541377512e+03 +5.8062992145e+03 -1.6756048175e+02 9.9305938729e+03 7.9829010000e+01 0.0000e+00 1.0000e+00
       22  1    1    2    0    0 +2.6227890007e+01 -2.1115170152e+01 +4.5464397556e-01 3.3674312552e+01 0.0000000000e+00 0.0000e+00 -1.0000e+00
       22  1    1    2    0    0 -3.6883817179e+01 +6.1989525367e+01 -8.4262284408e+00 7.2623126830e+01 0.0000000000e+00 0.0000e+00 -1.0000e+00
</event>
<event>
 6      1 +1.4834189e-01 1.00037900e+04 7.81653100e-03 6.93849700e-02
  1000022 -1    0    0    0    0 +0.0000000000e+00 +0.0000000000e+00 +4.4721471353e+01 1.0000100000e+04 1.0000000000e+04 0.0000e+00 1.0000e+00
  1000022 -1    0    0    0    0 -0.0000000000e+00 -0.0000000000e+00 -4.4721471353e+01 1.0000100000e+04 1.0000000000e+04 0.0000e+00 1.0000e+00
      -24  1    1    2    0    0 +4.7355064047e+03 +7.7701653336e+02 -7.8410672318e+03 9.1933390891e+03 7.9829010000e+01 0.0000e+00 -1.0000e+00
       24  1    1    2    0    0 -5.0263017705e+03 -8.8276507001e+02 +8.5293109632e+03 9.9397435498e+03 7.9829010000e+01 0.0000e+00 -1.0000e+00
       22  1    1    2    0    0 +3.1997884375e+02 +1.0774415127e+02 -7.3677502979e+02 8.1045216213e+02 0.0000000000e+00 0.0000e+00 -1.0000e+00
       22  1    1    2    0    0 -2.9183478008e+01 -1.9956146178e+00 +4.8531298333e+01 5.6665199058e+01 0.0000000000e+00 0.0000e+00 -1.0000e+00
</event>
<event>
 6      1 +1.4834189e-01 1.00001700e+04 7.81653100e-03 6.93871500e-02
  1000022 -1    0    0    0    0 +0.0000000000e+00 +0.0000000000e+00 +4.4721471353e+01 1.0000100000e+04 1.0000000000e+04 0.0000e+00 -1.0000e+00
  1000022 -1    0    0    0    0 -0.0000000000e+00 -0.0000000000e+00 -4.4721471353e+01 1.0000100000e+04 1.0000000000e+04 0.0000e+00 -1.0000e+00
      -24  1    1    2    0    0 -9.8545919883e+03 +4.3322876600e+02 +1.3873683251e+03 9.9615176534e+03 7.9829010000e+01 0.0000e+00 -1.0000e+00
       24  1    1    2    0    0 +9.8628432791e+03 -4.3404231404e+02 -1.3918841298e+03 9.9703452488e+03 7.9829010000e+01 0.0000e+00 -1.0000e+00
       22  1    1    2    0    0 -3.7628705972e+01 +2.3180659386e+00 +8.5175045774e+00 3.8650237089e+01 0.0000000000e+00 0.0000e+00 1.0000e+00
       22  1    1    2    0    0 +2.9377415159e+01 -1.5045179004e+00 -4.0016998253e+00 2.9686860680e+01 0.0000000000e+00 0.0000e+00 -1.0000e+00
</event>
<event>
 6      1 +1.4834189e-01 1.00215300e+04 7.81653100e-03 6.93742700e-02
  1000022 -1    0    0    0    0 +0.0000000000e+00 +0.0000000000e+00 +4.4721471353e+01 1.0000100000e+04 1.0000000000e+04 0.0000e+00 -1.0000e+00
  1000022 -1    0    0    0    0 -0.0000000000e+00 -0.0000000000e+00 -4.4721471353e+01 1.0000100000e+04 1.0000000000e+04 0.0000e+00 -1.0000e+00
      -24  1    1    2    0    0 -6.9383959940e+03 +7.0150162572e+03 -1.3819818943e+03 9.9633347172e+03 7.9829010000e+01 0.0000e+00 -1.0000e+00
       24  1    1    2    0    0 +4.0198858600e+02 -1.6923078813e+02 +2.2995780621e+01 4.4399927893e+02 7.9829010000e+01 0.0000e+00 1.0000e+00
       22  1    1    2    0    0 -9.8810466687e+00 +1.1620841831e+01 -1.5880595985e+00 1.5336263607e+01 0.0000000000e+00 0.0000e+00 -1.0000e+00
       22  1    1    2    0    0 +6.5462884547e+03 -6.8574063109e+03 +1.3605741733e+03 9.5775297403e+03 0.0000000000e+00 0.0000e+00 -1.0000e+00
</event>
<event>
 6      1 +1.4834189e-01 1.00001200e+04 7.81653100e-03 6.93871800e-02
  1000022 -1    0    0    0    0 +0.0000000000e+00 +0.0000000000e+00 +4.4721471353e+01 1.0000100000e+04 1.0000000000e+04 0.0000e+00 -1.0000e+00
  1000022 -1    0    0    0    0 -0.0000000000e+00 -0.0000000000e+00 -4.4721471353e+01 1.0000100000e+04 1.0000000000e+04 0.0000e+00 -1.0000e+00
      -24  1    1    2    0    0 -6.2388805205e+03 +6.2479321348e+03 -4.1615259711e+03 9.7614013947e+03 7.9829010000e+01 0.0000e+00 -1.0000e+00
       24  1    1    2    0    0 +6.0142986055e+03 -6.0437336453e+03 +4.0232201096e+03 9.4282117506e+03 7.9829010000e+01 0.0000e+00 -1.0000e+00
       22  1    1    2    0    0 +3.7343823837e+02 -3.6205707227e+02 +2.3776519287e+02 5.7190360062e+02 0.0000000000e+00 0.0000e+00 -1.0000e+00
       22  1    1    2    0    0 -1.4885632341e+02 +1.5785858281e+02 -9.9459331419e+01 2.3868325411e+02 0.0000000000e+00 0.0000e+00 1.0000e+00
</event>
<event>
 6      1 +1.4834189e-01 1.00019200e+04 7.81653100e-03 6.93860900e-02
  1000022 -1    0    0    0    0 +0.0000000000e+00 +0.0000000000e+00 +4.4721471353e+01 1.0000100000e+04 1.0000000000e+04 0.0000e+00 1.0000e+00
  1000022 -1    0    0    0    0 -0.0000000000e+00 -0.0000000000e+00 -4.4721471353e+01 1.0000100000e+04 1.0000000000e+04 0.0000e+00 1.0000e+00
      -24  1    1    2    0    0 -2.6293691264e+03 -6.1841567818e+03 +7.2033210837e+03 9.8514762553e+03 7.9829010000e+01 0.0000e+00 -1.0000e+00
       24  1    1    2    0    0 +2.6800328356e+03 +6.2571014020e+03 -7.3229269987e+03 9.9982761741e+03 7.9829010000e+01 0.0000e+00 -1.0000e+00
       22  1    1    2    0    0 -4.6170460555e+01 -6.2198904621e+01 +1.1316600915e+02 1.3713847305e+02 0.0000000000e+00 0.0000e+00 1.0000e+00
       22  1    1    2    0    0 -4.4932487336e+00 -1.0745715579e+01 +6.4399059023e+00 1.3309097472e+01 0.0000000000e+00 0.0000e+00 -1.0000e+00
</event>
<event>
 6      1 +1.4834189e-01 1.01272300e+04 7.81653100e-03 6.93110000e-02
  1000022 -1    0    0    0    0 +0.0000000000e+00 +0.0000000000e+00 +4.4721471353e+01 1.0000100000e+04 1.0000000000e+04 0.0000e+00 -1.0000e+00
  1000022 -1    0    0    0    0 -0.0000000000e+00 -0.0000000000e+00 -4.4721471353e+01 1.0000100000e+04 1.0000000000e+04 0.0000e+00 -1.0000e+00
      -24  1    1    2    0    0 -4.0510244912e+03 +5.7209002219e+03 -2.6188568795e+03 7.4836009249e+03 7.9829010000e+01 0.0000e+00 -1.0000e+00
       24  1    1    2    0    0 +5.3848627958e+03 -7.9587228834e+03 +2.2201477601e+03 9.8627301500e+03 7.9829010000e+01 0.0000e+00 -1.0000e+00
       22  1    1    2    0    0 -1.1332329175e+00 -1.0170618908e+01 -2.9982794846e-01 1.0237949141e+01 0.0000000000e+00 0.0000e+00 -1.0000e+00
       22  1    1    2    0    0 -1.3327050717e+03 +2.2479932804e+03 +3.9900894732e+02 2.6436309759e+03 0.0000000000e+00 0.0000e+00 1.0000e+00
</event>
<event>
 6      1 +1.4834189e-01 1.02066600e+04 7.81653100e-03 6.92639600e-02
  1000022 -1    0    0    0    0 +0.0000000000e+00 +0.0000000000e+00 +4.4721471353e+01 1.0000100000e+04 1.0000000000e+04 0.0000e+00 1.0000e+00
  1000022 -1    0    0    0    0 -0.0000000000e+00 -0.0000000000e+00 -4.4721471353e+01 1.0000100000e+04 1.0000000000e+04 0.0000e+00 1.0000e+00
      -24  1    1    2    0    0 -1.5581513633e+03 -1.0040682475e+03 +9.4758788961e+03 9.6558087306e+03 7.9829010000e+01 0.0000e+00 1.0000e+00
       24  1    1    2    0    0 +1.0546423845e+03 +1.0240325206e+03 -9.5575961768e+03 9.6703118105e+03 7.9829010000e+01 0.0000e+00 1.0000e+00
       22  1    1    2    0    0 -9.7948022006e+00 -3.5593999028e+01 -1.1756648294e+02 1.2322641286e+02 0.0000000000e+00 0.0000e+00 1.0000e+00
       22  1    1    2    0    0 +5.1330378101e+02 +1.5629725926e+01 +1.9928376360e+02 5.5085304607e+02 0.0000000000e+00 0.0000e+00 1.0000e+00
</event>
<event>
 6      1 +1.4834189e-01 1.00600100e+04 7.81653100e-03 6.93511500e-02
  1000022 -1    0    0    0    0 +0.0000000000e+00 +0.0000000000e+00 +4.4721471353e+01 1.0000100000e+04 1.0000000000e+04 0.0000e+00 -1.0000e+00
  1000022 -1    0    0    0    0 -0.0000000000e+00 -0.0000000000e+00 -4.4721471353e+01 1.0000100000e+04 1.0000000000e+04 0.0000e+00 -1.0000e+00
      -24  1    1    2    0    0 -4.2754499610e+03 -1.6000970460e+02 +8.3279310566e+03 9.3630061321e+03 7.9829010000e+01 0.0000e+00 1.0000e+00
       24  1    1    2    0    0 +1.2803382596e+03 +1.1784900256e+03 -2.6970248153e+03 3.2106728772e+03 7.9829010000e+01 0.0000e+00 1.0000e+00
       22  1    1    2    0    0 +1.6665388209e+02 +2.9495513408e+02 +4.6730051116e+02 5.7718438585e+02 0.0000000000e+00 0.0000e+00 1.0000e+00
       22  1    1    2    0    0 +2.8284578193e+03 -1.3134354551e+03 -6.0982067525e+03 6.8493366048e+03 0.0000000000e+00 0.0000e+00 1.0000e+00
</event>
<event>
 6      1 +1.4834189e-01 1.00162500e+04 7.81653100e-03 6.93774500e-02
  1000022 -1    0    0    0    0 +0.0000000000e+00 +0.0000000000e+00 +4.4721471353e+01 1.0000100000e+04 1.0000000000e+04 0.0000e+00 1.0000e+00
  1000022 -1    0    0    0    0 -0.0000000000e+00 -0.0000000000e+00 -4.4721471353e+01 1.0000100000e+04 1.0000000000e+04 0.0000e+00 1.0000e+00
      -24  1    1    2    0    0 -8.2729800265e+03 +3.7166683886e+03 -2.6781120182e+03 9.4569804421e+03 7.9829010000e+01 0.0000e+00 1.0000e+00
       24  1    1    2    0    0 +7.4985535712e+03 -3.4821791294e+03 +2.2222387636e+03 8.5614598605e+03 7.9829010000e+01 0.0000e+00 1.0000e+00
       22  1    1    2    0    0 -4.5037731352e+02 +1.5258915829e+02 -2.2709467829e+02 5.2696790099e+02 0.0000000000e+00 0.0000e+00 -1.0000e+00
       22  1    1    2    0    0 +1.2248037688e+03 -3.8707841754e+02 +6.8296793291e+02 1.4547917964e+03 0.0000000000e+00 0.0000e+00 1.0000e+00
</event>
<event>
 6      1 +1.4834189e-01 1.00674900e+04 7.81653100e-03 6.93466700e-02
  1000022 -1    0    0    0    0 +0.0000000000e+00 +0.0000000000e+00 +4.4721471353e+01 1.0000100000e+04 1.0000000000e+04 0.0000e+00 1.0000e+00
  1000022 -1    0    0    0    0 -0.0000000000e+00 -0.0000000000e+00 -4.4721471353e+01 1.0000100000e+04 1.0000000000e+04 0.0000e+00 1.0000e+00
      -24  1    1    2    0    0 -1.7675301151e+03 -9.1035311016e+02 +3.8596947201e+02 2.0268819890e+03 7.9829010000e+01 0.0000e+00 1.0000e+00
       24  1    1    2    0    0 +7.4517345500e+03 +5.6694704180e+03 -1.4981573693e+03 9.4827259160e+03 7.9829010000e+01 0.0000e+00 1.0000e+00
       22  1    1    2    0    0 -6.1673658462e+03 -4.8802025502e+03 +8.0585933786e+02 7.9058325105e+03 0.0000000000e+00 0.0000e+00 1.0000e+00
       22  1    1    2    0    0 +4.8316141130e+02 +1.2108524242e+02 +3.0632855946e+02 5.8475958448e+02 0.0000000000e+00 0.0000e+00 1.0000e+00
</event>
<event>
 6      1 +1.4834189e-01 1.00310000e+04 7.81653100e-03 6.93685700e-02
  1000022 -1    0    0    0    0 +0.0000000000e+00 +0.0000000000e+00 +4.4721471353e+01 1.0000100000e+04 1.0000000000e+04 0.0000e+00 -1.0000e+00
  1000022 -1    0    0    0    0 -0.0000000000e+00 -0.0000000000e+00 -4.4721471353e+01 1.0000100000e+04 1.0000000000e+04 0.0000e+00 -1.0000e+00
      -24  1    1    2    0    0 +8.9082040297e+03 -2.0850590949e+03 -3.9591613158e+03 9.9691976337e+03 7.9829010000e+01 0.0000e+00 1.0000e+00
       24  1    1    2    0    0 -2.0079307958e+03 +2.6355076891e+02 +7.0955301471e+02 2.1473432982e+03 7.9829010000e+01 0.0000e+00 1.0000e+00
       22  1    1    2    0    0 -1.5158028397e+02 -7.6712821341e+00 +2.1061254854e+02 2.5960176552e+02 0.0000000000e+00 0.0000e+00 1.0000e+00
       22  1    1    2    0    0 -6.7486929499e+03 +1.8291796081e+03 +3.0389957526e+03 7.6240573027e+03 0.0000000000e+00 0.0000e+00 1.0000e+00
</event>
<event>
 6      1 +1.4834189e-01 1.00053400e+04 7.81653100e-03 6.93840300e-02
  1000022 -1    0    0    0    0 +0.0000000000e+00 +0.0000000000e+00 +4.4721471353e+01 1.0000100000e+04 1.0000000000e+04 0.0000e+00 -1.0000e+00
  1000022 -1    0    0    0    0 -0.0000000000e+00 -0.0000000000e+00 -4.4721471353e+01 1.0000100000e+04 1.0000000000e+04 0.0000e+00 -1.0000e+00
      -24  1    1    2    0    0 +7.4882347865e+03 -3.3551960067e+02 +6.4334090098e+03 9.8783276813e+03 7.9829010000e+01 0.0000e+00 -1.0000e+00
       24  1    1    2    0    0 -5.9815441247e+03 +2.0793656591e+02 -5.4275077467e+03 8.0799950955e+03 7.9829010000e+01 0.0000e+00 -1.0000e+00
       22  1    1    2    0    0 +6.7340629674e+01 -4.1134989861e+00 +9.5019123670e+01 1.1653460920e+02 0.0000000000e+00 0.0000e+00 -1.0000e+00
       22  1    1    2    0    0 -1.5740312914e+03 +1.3169653375e+02 -1.1009203868e+03 1.9253426141e+03 0.0000000000e+00 0.0000e+00 -1.0000e+00
</event>
<event>
 6      1 +1.4834189e-01 1.00909800e+04 7.81653100e-03 6.93326100e-02
  1000022 -1    0    0    0    0 +0.0000000000e+00 +0.0000000000e+00 +4.4721471353e+01 1.0000100000e+04 1.0000000000e+04 0.0000e+00 1.0000e+00
  1000022 -1    0    0    0    0 -0.0000000000e+00 -0.0000000000e+00 -4.4721471353e+01 1.0000100000e+04 1.0000000000e+04 0.0000e+00 1.0000e+00
      -24  1    1    2    0    0 -1.3651575382e+03 +6.2661667602e+03 -7.5536650390e+03 9.9092244481e+03 7.9829010000e+01 0.0000e+00 -1.0000e+00
       24  1    1    2    0    0 +8.1734201456e+02 -4.9044497669e+03 +6.7644314878e+03 8.3955691593e+03 7.9829010000e+01 0.0000e+00 -1.0000e+00
       22  1    1    2    0    0 +3.1913106160e+02 -5.9634431940e+02 +2.0837029056e+02 7.0773537409e+02 0.0000000000e+00 0.0000e+00 1.0000e+00
       22  1    1    2    0    0 +2.2868446204e+02 -7.6537267395e+02 +5.8086326063e+02 9.8767101849e+02 0.0000000000e+00 0.0000e+00 1.0000e+00
</event>
<event>
 6      1 +1.4834189e-01 1.01071800e+04 7.81653100e-03 6.93229400e-02
  1000022 -1    0    0    0    0 +0.0000000000e+00 +0.0000000000e+00 +4.4721471353e+01 1.0000100000e+04 1.0000000000e+04 0.0000e+00 1.0000e+00
  1000022 -1    0    0    0    0 -0.0000000000e+00 -0.0000000000e+00 -4.4721471353e+01 1.0000100000e+04 1.0000000000e+04 0.0000e+00 1.0000e+00
      -24  1    1    2    0    0 +2.1755999157e+03 +9.1844376694e+03 +1.7238897346e+03 9.5950663773e+03 7.9829010000e+01 0.0000e+00 1.0000e+00
       24  1    1    2    0    0 -1.9437556634e+03 -9.4789332587e+03 -2.0584058264e+03 9.8930161739e+03 7.9829010000e+01 0.0000e+00 1.0000e+00
       22  1    1    2    0    0 -2.3848996003e+02 +2.6921786218e+02 +3.2353678830e+02 4.8376830377e+02 0.0000000000e+00 0.0000e+00 1.0000e+00
       22  1    1    2    0    0 +6.6457077597e+00 +2.5277727070e+01 +1.0979303544e+01 2.8349145027e+01 0.0000000000e+00 0.0000e+00 -1.0000e+00
</event>
<event>
 6      1 +1.4834189e-01 1.00015600e+04 7.81653100e-03 6.93863200e-02
  1000022 -1    0    0    0    0 +0.0000000000e+00 +0.0000000000e+00 +4.4721471353e+01 1.0000100000e+04 1.0000000000e+04 0.0000e+00 1.0000e+00
  1000022 -1    0    0    0    0 -0.0000000000e+00 -0.0000000000e+00 -4.4721471353e+01 1.0000100000e+04 1.0000000000e+04 0.0000e+00 1.0000e+00
      -24  1    1    2    0    0 +9.6713322704e+03 +1.0033364823e+03 -1.0426814945e+03 9.7793102697e+03 7.9829010000e+01 0.0000e+00 -1.0000e+00
       24  1    1    2    0    0 -9.6965225155e+03 -1.0085632915e+03 +1.0834147601e+03 9.8091747370e+03 7.9829010000e+01 0.0000e+00 -1.0000e+00
       22  1    1    2    0    0 -1.8753726562e+02 -1.9488881037e+01 +1.8673358094e+01 1.8946961968e+02 0.0000000000e+00 0.0000e+00 -1.0000e+00
       22  1    1    2    0    0 +2.1272751077e+02 +2.4715690229e+01 -5.9406623662e+01 2.2224537367e+02 0.0000000000e+00 0.0000e+00 -1.0000e+00
</event>
<event>
 6      1 +1.4834189e-01 1.03317500e+04 7.81653100e-03 6.91907500e-02
  1000022 -1    0    0    0    0 +0.0000000000e+00 +0.0000000000e+00 +4.4721471353e+01 1.0000100000e+04 1.0000000000e+04 0.0000e+00 1.0000e+00
  1000022 -1    0    0    0    0 -0.0000000000e+00 -0.0000000000e+00 -4.4721471353e+01 1.0000100000e+04 1.0000000000e+04 0.0000e+00 1.0000e+00
      -24  1    1    2    0    0 -3.3906513998e+03 -3.2911960185e+03 -2.1651001661e+02 4.7309340944e+03 7.9829010000e+01 0.0000e+00 -1.0000e+00
       24  1    1    2    0    0 +4.6740163025e+03 +8.1801527255e+03 -2.1705398601e+03 9.6684509081e+03 7.9829010000e+01 0.0000e+00 -1.0000e+00
       22  1    1    2    0    0 -1.2873761521e+01 -6.6504201502e+00 -7.6702804026e+00 1.6394969513e+01 0.0000000000e+00 0.0000e+00 1.0000e+00
       22  1    1    2    0    0 -1.2704911411e+03 -4.8823062868e+03 +2.3947201571e+03 5.5844200280e+03 0.0000000000e+00 0.0000e+00 -1.0000e+00
</event>
<event>
 6      1 +1.4834189e-01 1.00024300e+04 7.81653100e-03 6.93857900e-02
  1000022 -1    0    0    0    0 +0.0000000000e+00 +0.0000000000e+00 +4.4721471353e+01 1.0000100000e+04 1.0000000000e+04 0.0000e+00 -1.0000e+00
  1000022 -1    0    0    0    0 -0.0000000000e+00 -0.0000000000e+00 -4.4721471353e+01 1.0000100000e+04 1.0000000000e+04 0.0000e+00 -1.0000e+00
      -24  1    1    2    0    0 +1.4216946432e+03 -9.8455166710e+02 +6.5647601236e+03 6.7891829991e+03 7.9829010000e+01 0.0000e+00 -1.0000e+00
       24  1    1    2    0    0 -2.2214707049e+03 +1.3595460821e+03 -9.3488178685e+03 9.7051566629e+03 7.9829010000e+01 0.0000e+00 -1.0000e+00
       22  1    1    2    0    0 +8.7186546642e+02 -4.0497092009e+02 +3.0660682360e+03 3.2132421735e+03 0.0000000000e+00 0.0000e+00 1.0000e+00
       22  1    1    2    0    0 -7.2089404663e+01 +2.9976505104e+01 -2.8201049109e+02 2.9261816452e+02 0.0000000000e+00 0.0000e+00 -1.0000e+00
</event>
<event>
 6      1 +1.4834189e-01 1.00009900e+04 7.81653100e-03 6.93866600e-02
  1000022 -1    0    0    0    0 +0.0000000000e+00 +0.0000000000e+00 +4.4721471353e+01 1.0000100000e+04 1.0000000000e+04 0.0000e+00 1.0000e+00
  1000022 -1    0    0    0    0 -0.0000000000e+00 -0.0000000000e+00 -4.4721471353e+01 1.0000100000e+04 1.0000000000e+04 0.0000e+00 1.0000e+00
      -24  1    1    2    0    0 -7.9101600567e+03 -3.9692869950e+03 -1.7983496699e+02 8.8523773450e+03 7.9829010000e+01 0.0000e+00 1.0000e+00
       24  1    1    2    0    0 +1.3054584333e+03 +5.8599564728e+02 -3.7474212098e+01 1.4336630034e+03 7.9829010000e+01 0.0000e+00 1.0000e+00
       22  1    1    2    0    0 +7.6048674258e+03 +3.9418650264e+03 +1.6349415303e+02 8.5673238989e+03 0.0000000000e+00 0.0000e+00 1.0000e+00
       22  1    1    2    0    0 -1.0001658024e+03 -5.5857367876e+02 +5.3815026057e+01 1.1468357528e+03 0.0000000000e+00 0.0000e+00 -1.0000e+00
</event>
<event>
 6      1 +1.4834189e-01 1.02080600e+04 7.81653100e-03 6.92631300e-02
  1000022 -1    0    0    0    0 +0.0000000000e+00 +0.0000000000e+00 +4.4721471353e+01 1.0000100000e+04 1.0000000000e+04 0.0000e+00 -1.0000e+00
  1000022 -1    0    0    0    0 -0.0000000000e+00 -0.0000000000e+00 -4.4721471353e+01 1.0000100000e+04 1.0000000000e+04 0.0000e+00 -1.0000e+00
      -24  1    1    2    0    0 -6.0516359550e+03 +2.3313522503e+03 -3.6462172720e+03 7.4403477145e+03 7.9829010000e+01 0.0000e+00 1.0000e+00
       24  1    1    2    0    0 +2.8357483622e+03 -9.7987621190e+02 +2.3936135272e+03 3.8389301312e+03 7.9829010000e+01 0.0000e+00 1.0000e+00
       22  1    1    2    0    0 +4.4066704514e+03 -1.3981093649e+03 +3.7506265457e+03 5.9532053340e+03 0.0000000000e+00 0.0000e+00 1.0000e+00
       22  1    1    2    0    0 -1.1907828585e+03 +4.6633326454e+01 -2.4980228009e+03 2.7677168202e+03 0.0000000000e+00 0.0000e+00 1.0000e+00
</event>
<event>
 6      1 +1.4834189e-01 1.00148300e+04 7.81653100e-03 6.93783100e-02
  1000022 -1    0    0    0    0 +0.0000000000e+00 +0.0000000000e+00 +4.4721471353e+01 1.0000100000e+04 1.0000000000e+04 0.0000e+00 -1.0000e+00
  1000022 -1    0    0    0    0 -0.0000000000e+00 -0.0000000000e+00 -4.4721471353e+01 1.0000100000e+04 1.0000000000e+04 0.0000e+00 -1.0000e+00
      -24  1    1    2    0    0 -6.4342776595e+01 -3.3718903831e+02 +4.5914292330e+03 4.6049355601e+03 7.9829010000e+01 0.0000e+00 1.0000e+00
       24  1    1    2    0    0 -6.7893072992e+02 +1.6846193017e+03 -9.7104588009e+03 9.8791837680e+03 7.9829010000e+01 0.0000e+00 1.0000e+00
       22  1    1    2    0    0 +1.0172172319e+02 -6.1001333556e+01 -6.5812827126e+01 1.3564586200e+02 0.0000000000e+00 0.0000e+00 -1.0000e+00
       22  1    1    2    0    0 +6.4155178333e+02 -1.2864289299e+03 +5.1848423950e+03 5.3804348099e+03 0.0000000000e+00 0.0000e+00 1.0000e+00
</event>
<event>
 6      1 +1.4834189e-01 1.00564600e+04 7.81653100e-03 6.93532800e-02
  1000022 -1    0    0    0    0 +0.0000000000e+00 +0.0000000000e+00 +4.4721471353e+01 1.0000100000e+04 1.0000000000e+04 0.0000e+00 -1.0000e+00
  1000022 -1    0    0    0    0 -0.0000000000e+00 -0.0000000000e+00 -4.4721471353e+01 1.0000100000e+04 1.0000000000e+04 0.0000e+00 -1.0000e+00
      -24  1    1    2    0    0 +3.6427481935e+03 -3.8735993470e+03 +3.2400926813e+03 6.2272754521e+03 7.9829010000e+01 0.0000e+00 -1.0000e+00
       24  1    1    2    0    0 -6.5433730267e+03 +5.8858443481e+03 -4.2531910841e+03 9.7752187355e+03 7.9829010000e+01 0.0000e+00 -1.0000e+00
       22  1    1    2    0    0 +2.9932283499e+03 -2.1146395378e+03 +1.1097414799e+03 3.8291830045e+03 0.0000000000e+00 0.0000e+00 -1.0000e+00
       22  1    1    2    0    0 -9.2603516696e+01 +1.0239453668e+02 -9.6643077097e+01 1.6852280795e+02 0.0000000000e+00 0.0000e+00 -1.0000e+00
</event>
<event>
 6      1 +1.4834189e-01 1.00526500e+04 7.81653100e-03 6.93555600e-02
  1000022 -1    0    0    0    0 +0.0000000000e+00 +0.0000000000e+00 +4.4721471353e+01 1.0000100000e+04 1.0000000000e+04 0.0000e+00 1.0000e+00
  1000022 -1    0    0    0    0 -0.0000000000e+00 -0.0000000000e+00 -4.4721471353e+01 1.0000100000e+04 1.0000000000e+04 0.0000e+00 1.0000e+00
      -24  1    1    2    0    0 +7.9258505229e+03 -3.1228672938e+03 +4.9782638504e+03 9.8671622202e+03 7.9829010000e+01 0.0000e+00 1.0000e+00
       24  1    1    2    0    0 -7.9466800729e+03 +2.9791905522e+03 -4.8776111241e+03 9.7889102293e+03 7.9829010000e+01 0.0000e+00 1.0000e+00
       22  1    1    2    0    0 -1.3157509751e+02 +4.0185568392e+01 -7.8984055615e+01 1.5863595820e+02 0.0000000000e+00 0.0000e+00 1.0000e+00
       22  1    1    2    0    0 +1.5240464756e+02 +1.0349117321e+02 -2.1668670628e+01 1.8549159230e+02 0.0000000000e+00 0.0000e+00 -1.0000e+00
</event>
<event>
 6      1 +1.4834189e-01 1.04430500e+04 7.81653100e-03 6.91264800e-02
  1000022 -1    0    0    0    0 +0.0000000000e+00 +0.0000000000e+00 +4.4721471353e+01 1.0000100000e+04 1.0000000000e+04 0.0000e+00 -1.0000e+00
  1000022 -1    0    0    0    0 -0.0000000000e+00 -0.0000000000e+00 -4.4721471353e+01 1.0000100000e+04 1.0000000000e+04 0.0000e+00 -1.0000e+00
      -24  1    1    2    0    0 +1.4148631971e+03 -1.6887828742e+03 -2.8037604571e+03 3.5666890577e+03 7.9829010000e+01 0.0000e+00 -1.0000e+00
       24  1    1    2    0    0 -5.6694752821e+01 +1.5863009632e+02 +2.9611042110e+02 3.4990263614e+02 7.9829010000e+01 0.0000e+00 1.0000e+00
       22  1    1    2    0    0 -2.7567141321e+03 -5.0050097688e+03 -3.8255318060e+03 6.8763572617e+03 0.0000000000e+00 0.0000e+00 -1.0000e+00
       22  1    1    2    0    0 +1.3985456878e+03 +6.5351625466e+03 +6.3331818420e+03 9.2072510445e+03 0.0000000000e+00 0.0000e+00 -1.0000e+00
</event>
<event>
 6      1 +1.4834189e-01 1.00003300e+04 7.81653100e-03 6.93870500e-02
  1000022 -1    0    0    0    0 +0.0000000000e+00 +0.0000000000e+00 +4.4721471353e+01 1.0000100000e+04 1.0000000000e+04 0.0000e+00 1.0000e+00
  1000022 -1    0    0    0    0 -0.0000000000e+00 -0.0000000000e+00 -4.4721471353e+01 1.0000100000e+04 1.0000000000e+04 0.0000e+00 1.0000e+00
      -24  1    1    2    0    0 -4.2750020907e+03 +8.4197548401e+03 -2.4900427352e+03 9.7659920099e+03 7.9829010000e+01 0.0000e+00 1.0000e+00
       24  1    1    2    0    0 +4.3173787795e+03 -8.5330201749e+03 +2.5248022968e+03 9.8910662792e+03 7.9829010000e+01 0.0000e+00 1.0000e+00
       22  1    1    2    0    0 +4.6002750885e+01 -9.5265985946e+01 +2.5406657618e+01 1.0879962968e+02 0.0000000000e+00 0.0000e+00 -1.0000e+00
       22  1    1    2    0    0 -8.8379439640e+01 +2.0853132077e+02 -6.0166219210e+01 2.3434208122e+02 0.0000000000e+00 0.0000e+00 -1.0000e+00
</event>
<event>
 6      1 +1.4834189e-01 1.00868300e+04 7.81653100e-03 6.93350900e-02
  1000022 -1    0    0    0    0 +0.0000000000e+00 +0.0000000000e+00 +4.4721471353e+01 1.0000100000e+04 1.0000000000e+04 0.0000e+00 -1.0000e+00
  1000022 -1    0    0    0    0 -0.0000000000e+00 -0.0000000000e+00 -4.4721471353e+01 1.0000100000e+04 1.0000000000e+04 0.0000e+00 -1.0000e+00
      -24  1    1    2    0    0 -8.6203578256e+03 +4.8886914674e+03 -2.4224490901e+02 9.9133712011e+03 7.9829010000e+01 0.0000e+00 1.0000e+00
       24  1    1    2    0    0 +5.7381799747e+03 -3.5949879140e+03 -4.5556732908e+02 6.7870878722e+03 7.9829010000e+01 0.0000e+00 1.0000e+00
       22  1    1    2    0    0 +2.0931686647e+02 +7.4367807600e+01 +3.5927803152e+01 2.2502206210e+02 0.0000000000e+00 0.0000e+00 1.0000e+00
       22  1    1    2    0    0 +2.6728609844e+03 -1.3680713610e+03 +6.6188443494e+02 3.0747188646e+03 0.0000000000e+00 0.0000e+00 1.0000e+00
</event>
<event>
 6      1 +1.4834189e-01 1.02161000e+04 7.81653100e-03 6.92584000e-02
  1000022 -1    0    0    0    0 +0.0000000000e+00 +0.0000000000e+00 +4.4721471353e+01 1.0000100000e+04 1.0000000000e+04 0.0000e+00 1.0000e+00
  1000022 -1    0    0    0    0 -0.0000000000e+00 -0.0000000000e+00 -4.4721471353e+01 1.0000100000e+04 1.0000000000e+04 0.0000e+00 1.0000e+00
      -24  1    1    2    0    0 -8.3491128374e+03 -4.7005750170e+03 -1.9796834313e+03 9.7840998472e+03 7.9829010000e+01 0.0000e+00 -1.0000e+00
       24  1    1    2    0    0 +1.2459341536e+03 -2.4899108990e+02 -1.5125520390e+02 1.2820293622e+03 7.9829010000e+01 0.0000e+00 -1.0000e+00
       22  1    1    2    0    0 +5.7030659067e+01 -1.0694493794e+01 +2.3295009711e+00 5.8071463266e+01 0.0000000000e+00 0.0000e+00 -1.0000e+00
       22  1    1    2    0    0 +7.0461480247e+03 +4.9602606007e+03 +2.1286091342e+03 8.8759993273e+03 0.0000000000e+00 0.0000e+00 -1.0000e+00
</event>
<event>
 6      1 +1.4834189e-01 1.08023100e+04 7.81653100e-03 6.89244000e-02
  1000022 -1    0    0    0    0 +0.0000000000e+00 +0.0000000000e+00 +4.4721471353e+01 1.0000100000e+04 1.0000000000e+04 0.0000e+00 1.0000e+00
  1000022 -1    0    0    0    0 -0.0000000000e+00 -0.0000000000e+00 -4.4721471353e+01 1.0000100000e+04 1.0000000000e+04 0.0000e+00 1.0000e+00
      -24  1    1    2    0    0 -3.9256303903e+03 -4.8960463849e+03 -5.4471976778e+03 8.3102454462e+03 7.9829010000e+01 0.0000e+00 1.0000e+00
       24  1    1    2    0    0 +3.5041801749e+03 +7.1744619747e+03 +4.1928656910e+03 9.0187958564e+03 7.9829010000e+01 0.0000e+00 1.0000e+00
       22  1    1    2    0    0 +9.3354472091e+01 -7.7995014472e+01 +1.3144087095e+02 1.7909489747e+02 0.0000000000e+00 0.0000e+00 1.0000e+00
       22  1    1    2    0    0 +3.2809574330e+02 -2.2004205753e+03 +1.1228911158e+03 2.4920638000e+03 0.0000000000e+00 0.0000e+00 1.0000e+00
</event>
<event>
 6      1 +1.4834189e-01 1.02234100e+04 7.81653100e-03 6.92541000e-02
  1000022 -1    0    0    0    0 +0.0000000000e+00 +0.0000000000e+00 +4.4721471353e+01 1.0000100000e+04 1.0000000000e+04 0.0000e+00 -1.0000e+00
  1000022 -1    0    0    0    0 -0.0000000000e+00 -0.0000000000e+00 -4.4721471353e+01 1.0000100000e+04 1.0000000000e+04 0.0000e+00 -1.0000e+00
      -24  1    1    2    0    0 -8.1953291360e+03 -5.2348277627e+03 -1.0061703867e+03 9.7767884743e+03 7.9829010000e+01 0.0000e+00 -1.0000e+00
       24  1    1    2    0    0 +5.7492252101e+03 +2.8852390590e+03 +1.7511720936e+03 6.6671711629e+03 7.9829010000e+01 0.0000e+00 -1.0000e+00
       22  1    1    2    0    0 +1.9473107858e+03 +2.0411016610e+03 -3.3539122989e+02 2.8408805966e+03 0.0000000000e+00 0.0000e+00 -1.0000e+00
       22  1    1    2    0    0 +4.9879314020e+02 +3.0848704277e+02 -4.0961047701e+02 7.1535976623e+02 0.0000000000e+00 0.0000e+00 -1.0000e+00
</event>
<event>
 6      1 +1.4834189e-01 1.00355300e+04 7.81653100e-03 6.93658500e-02
  1000022 -1    0    0    0    0 +0.0000000000e+00 +0.0000000000e+00 +4.4721471353e+01 1.0000100000e+04 1.0000000000e+04 0.0000e+00 1.0000e+00
  1000022 -1    0    0    0    0 -0.0000000000e+00 -0.0000000000e+00 -4.4721471353e+01 1.0000100000e+04 1.0000000000e+04 0.0000e+00 1.0000e+00
      -24  1    1    2    0    0 -7.6789112251e+03 +5.2989578687e+03 -3.3784915622e+03 9.9229637712e+03 7.9829010000e+01 0.0000e+00 1.0000e+00
       24  1    1    2    0    0 +7.5991655989e+03 -5.4074599882e+03 +3.3767627575e+03 9.9195181695e+03 7.9829010000e+01 0.0000e+00 1.0000e+00
       22  1    1    2    0    0 -1.1405769223e+01 +3.8146888019e+01 -1.2417710744e+01 4.1707027912e+01 0.0000000000e+00 0.0000e+00 -1.0000e+00
       22  1    1    2    0    0 +9.1151395498e+01 +7.0355231477e+01 +1.4146515480e+01 1.1601103136e+02 0.0000000000e+00 0.0000e+00 1.0000e+00
</event>
<event>
 6      1 +1.4834189e-01 1.00238200e+04 7.81653100e-03 6.93728900e-02
  1000022 -1    0    0    0    0 +0.0000000000e+00 +0.0000000000e+00 +4.4721471353e+01 1.0000100000e+04 1.0000000000e+04 0.0000e+00 -1.0000e+00
  1000022 -1    0    0    0    0 -0.0000000000e+00 -0.0000000000e+00 -4.4721471353e+01 1.0000100000e+04 1.0000000000e+04 0.0000e+00 -1.0000e+00
      -24  1    1    2    0    0 -8.6034320541e+03 +1.7010595825e+03 +4.0344947032e+03 9.6538161881e+03 7.9829010000e+01 0.0000e+00 -1.0000e+00
       24  1    1    2    0    0 +6.3389893425e+03 -8.6978230180e+02 -2.6430377356e+03 6.9232455019e+03 7.9829010000e+01 0.0000e+00 -1.0000e+00
       22  1    1    2    0    0 +2.5609183758e+03 -8.9692311610e+02 -1.5002655973e+03 3.1005758927e+03 0.0000000000e+00 0.0000e+00 -1.0000e+00
       22  1    1    2    0    0 -2.9647566426e+02 +6.5645835368e+01 +1.0880862966e+02 3.2256241736e+02 0.0000000000e+00 0.0000e+00 -1.0000e+00
</event>
<event>
 6      1 +1.4834189e-01 1.00003900e+04 7.81653100e-03 6.93870200e-02
  1000022 -1    0    0    0    0 +0.0000000000e+00 +0.0000000000e+00 +4.4721471353e+01 1.0000100000e+04 1.0000000000e+04 0.0000e+00 1.0000e+00
  1000022 -1    0    0    0    0 -0.0000000000e+00 -0.0000000000e+00 -4.4721471353e+01 1.0000100000e+04 1.0000000000e+04 0.0000e+00 1.0000e+00
      -24  1    1    2    0    0 -6.0940734217e+03 +7.5372294787e+03 +1.9899191011e+03 9.8951356627e+03 7.9829010000e+01 0.0000e+00 -1.0000e+00
       24  1    1    2    0    0 +6.1416907455e+03 -7.5865131027e+03 -1.9950681885e+03 9.9630425081e+03 7.9829010000e+01 0.0000e+00 -1.0000e+00
       22  1    1    2    0    0 -6.8123717610e+01 +7.7082245345e+01 +1.9345629331e+01 1.0467457582e+02 0.0000000000e+00 0.0000e+00 -1.0000e+00
       22  1    1    2    0    0 +2.0506393754e+01 -2.7798621343e+01 -1.4196541867e+01 3.7347253371e+01 0.0000000000e+00 0.0000e+00 1.0000e+00
</event>
<event>
 6      1 +1.4834189e-01 1.02290200e+04 7.81653100e-03 6.92508000e-02
  1000022 -1    0    0    0    0 +0.0000000000e+00 +0.0000000000e+00 +4.4721471353e+01 1.0000100000e+04 1.0000000000e+04 0.0000e+00 1.0000e+00
  1000022 -1    0    0    0    0 -0.0000000000e+00 -0.0000000000e+00 -4.4721471353e+01 1.0000100000e+04 1.0000000000e+04 0.0000e+00 1.0000e+00
      -24  1    1    2    0    0 -4.3675642475e+02 -1.2691232080e+03 -2.7468474954e+02 1.3723171186e+03 7.9829010000e+01 0.0000e+00 1.0000e+00
       24  1    1    2    0    0 +6.0654153904e+03 +3.8550567969e+03 +6.3692077962e+03 9.6033279329e+03 7.9829010000e+01 0.0000e+00 1.0000e+00
       22  1    1    2    0    0 +9.9764208432e+01 +6.5228247487e+01 +1.1818101485e+02 1.6785223807e+02 0.0000000000e+00 0.0000e+00 1.0000e+00
       22  1    1    2    0    0 -5.7284231741e+03 -2.6511618364e+03 -6.2127040615e+03 8.8567027104e+03 0.0000000000e+00 0.0000e+00 1.0000e+00
</event>
<event>
 6      1 +1.4834189e-01 1.00204600e+04 7.81653100e-03 6.93749100e-02
  1000022 -1    0    0    0    0 +0.0000000000e+00 +0.0000000000e+00 +4.4721471353e+01 1.0000100000e+04 1.0000000000e+04 0.0000e+00 -1.0000e+00
  1000022 -1    0    0    0    0 -0.0000000000e+00 -0.0000000000e+00 -4.4721471353e+01 1.0000100000e+04 1.0000000000e+04 0.0000e+00 -1.0000e+00
      -24  1    1    2    0    0 -5.3422276038e+03 +9.7156679519e+02 -7.5995237233e+03 9.3403678353e+03 7.9829010000e+01 0.0000e+00 1.0000e+00
       24  1    1    2    0    0 +5.2425873864e+03 -8.3873016023e+02 +7.7347381175e+03 9.3819367512e+03 7.9829010000e+01 0.0000e+00 1.0000e+00
       22  1    1    2    0    0 -2.2373892248e+02 -8.8814768562e+01 -6.3606734087e+02 6.8009472184e+02 0.0000000000e+00 0.0000e+00 -1.0000e+00
       22  1    1    2    0    0 +3.2337913991e+02 -4.4021866403e+01 +5.0085294659e+02 5.9780069167e+02 0.0000000000e+00 0.0000e+00 -1.0000e+00
</event>
<event>
 6      1 +1.4834189e-01 1.00014900e+04 7.81653100e-03 6.93863500e-02
  1000022 -1    0    0    0    0 +0.0000000000e+00 +0.0000000000e+00 +4.4721471353e+01 1.0000100000e+04 1.0000000000e+04 0.0000e+00 -1.0000e+00
  1000022 -1    0    0    0    0 -0.0000000000e+00 -0.0000000000e+00 -4.4721471353e+01 1.0000100000e+04 1.0000000000e+04 0.0000e+00 -1.0000e+00
      -24  1    1    2    0    0 -1.9011628600e+03 -8.3051047730e+03 +5.2324594024e+03 9.9987093957e+03 7.9829010000e+01 0.0000e+00 -1.0000e+00
       24  1    1    2    0    0 +1.8739252244e+03 +8.1594177919e+03 -5.1222224372e+03 9.8148474168e+03 7.9829010000e+01 0.0000e+00 -1.0000e+00
       22  1    1    2    0    0 +5.3028622944e+00 +3.5357719764e+01 -4.1662941683e+01 5.4900723174e+01 0.0000000000e+00 0.0000e+00 1.0000e+00
       22  1    1    2    0    0 +2.1934773287e+01 +1.1032926137e+02 -6.8574023569e+01 1.3174246431e+02 0.0000000000e+00 0.0000e+00 -1.0000e+00
</event>
<event>
 6      1 +1.4834189e-01 1.00218600e+04 7.81653100e-03 6.93740700e-02
  1000022 -1    0    0    0    0 +0.0000000000e+00 +0.0000000000e+00 +4.4721471353e+01 1.0000100000e+04 1.0000000000e+04 0.0000e+00 -1.0000e+00
  1000022 -1    0    0    0    0 -0.0000000000e+00 -0.0000000000e+00 -4.4721471353e+01 1.0000100000e+04 1.0000000000e+04 0.0000e+00 -1.0000e+00
      -24  1    1    2    0    0 +7.9558732267e+03 -2.6186947594e+03 -5.3012453205e+03 9.9127723499e+03 7.9829010000e+01 0.0000e+00 -1.0000e+00
       24  1    1    2    0    0 -4.6540217776e+03 +1.9859469522e+03 +3.3263807388e+03 6.0559958300e+03 7.9829010000e+01 0.0000e+00 -1.0000e+00
       22  1    1    2    0    0 -2.6766942199e+01 +3.6094619013e+01 -9.9404725865e+01 1.0908982648e+02 0.0000000000e+00 0.0000e+00 -1.0000e+00
       22  1    1    2    0    0 -3.2750845069e+03 +5.9665318818e+02 +2.0742693076e+03 3.9223419936e+03 0.0000000000e+00 0.0000e+00 -1.0000e+00
</event>
<event>
 6      1 +1.4834189e-01 1.00421000e+04 7.81653100e-03 6.93619000e-02
  1000022 -1    0    0    0    0 +0.0000000000e+00 +0.0000000000e+00 +4.4721471353e+01 1.0000100000e+04 1.0000000000e+04 0.0000e+00 1.0000e+00
  1000022 -1    0    0    0    0 -0.0000000000e+00 -0.0000000000e+00 -4.4721471353e+01 1.0000100000e+04 1.0000000000e+04 0.0000e+00 1.0000e+00
      -24  1    1    2    0    0 -7.3022620038e+03 +3.9810576275e+03 +3.8473816289e+03 9.1640912411e+03 7.9829010000e+01 0.0000e+00 1.0000e+00
       24  1    1    2    0    0 +7.8016781829e+03 -4.2437004165e+03 -4.5035852350e+03 9.9581036515e+03 7.9829010000e+01 0.0000e+00 1.0000e+00
       22  1    1    2    0    0 -4.2230054827e+02 +2.1749821026e+02 +6.2127040242e+02 7.8206146655e+02 0.0000000000e+00 0.0000e+00 1.0000e+00
       22  1    1    2    0    0 -7.7115630764e+01 +4.5144578713e+01 +3.4933203717e+01 9.5943640838e+01 0.0000000000e+00 0.0000e+00 -1.0000e+00
</event>
<event>
 6      1 +1.4834189e-01 1.00002100e+04 7.81653100e-03 6.93871300e-02
  1000022 -1    0    0    0    0 +0.0000000000e+00 +0.0000000000e+00 +4.4721471353e+01 1.0000100000e+04 1.0000000000e+04 0.0000e+00 -1.0000e+00
  1000022 -1    0    0    0    0 -0.0000000000e+00 -0.0000000000e+00 -4.4721471353e+01 1.0000100000e+04 1.0000000000e+04 0.0000e+00 -1.0000e+00
      -24  1    1    2    0    0 -5.0124145203e+03 +7.7634624509e+03 -2.0028544412e+03 9.4558683965e+03 7.9829010000e+01 0.0000e+00 -1.0000e+00
       24  1    1    2    0    0 +5.2852484304e+03 -8.1949047044e+03 +2.0897692529e+03 9.9731550818e+03 7.9829010000e+01 0.0000e+00 -1.0000e+00
       22  1    1    2    0    0 -2.8545267233e+02 +4.5360394860e+02 -9.5251504789e+01 5.4434604755e+02 0.0000000000e+00 0.0000e+00 1.0000e+00
       22  1    1    2    0    0 +1.2618762205e+01 -2.2161695077e+01 +8.3366930973e+00 2.6830474093e+01 0.0000000000e+00 0.0000e+00 1.0000e+00
</event>
<event>
 6      1 +1.4834189e-01 1.00017900e+04 7.81653100e-03 6.93861700e-02
  1000022 -1    0    0    0    0 +0.0000000000e+00 +0.0000000000e+00 +4.4721471353e+01 1.0000100000e+04 1.0000000000e+04 0.0000e+00 -1.0000e+00
  1000022 -1    0    0    0    0 -0.0000000000e+00 -0.0000000000e+00 -4.4721471353e+01 1.0000100000e+04 1.0000000000e+04 0.0000e+00 -1.0000e+00
      -24  1    1    2    0    0 -5.9012139112e+03 -8.0469714977e+03 -4.1866513181e+02 9.9879792287e+03 7.9829010000e+01 0.0000e+00 1.0000e+00
       24  1    1    2    0    0 +5.9064876936e+03 +8.0396231061e+03 +4.1375726382e+02 9.9849739262e+03 7.9829010000e+01 0.0000e+00 1.0000e+00
       22  1    1    2    0    0 +5.4042470770e-01 +1.6002898351e+01 +5.1438970257e+00 1.6817981184e+01 0.0000000000e+00 0.0000e+00 1.0000e+00
       22  1    1    2    0    0 -5.8142071483e+00 -8.6545067976e+00 -2.3602903919e-01 1.0428863906e+01 0.0000000000e+00 0.0000e+00 1.0000e+00
</event>
<event>
 6      1 +1.4834189e-01 1.00002000e+04 7.81653100e-03 6.93871300e-02
  1000022 -1    0    0    0    0 +0.0000000000e+00 +0.0000000000e+00 +4.4721471353e+01 1.0000100000e+04 1.0000000000e+04 0.0000e+00 1.0000e+00
  1000022 -1    0    0    0    0 -0.0000000000e+00 -0.0000000000e+00 -4.4721471353e+01 1.0000100000e+04 1.0000000000e+04 0.0000e+00 1.0000e+00
      -24  1    1    2    0    0 +1.1911235199e+03 +8.3509032100e+03 -5.3041869517e+03 9.9647946066e+03 7.9829010000e+01 0.0000e+00 -1.0000e+00
       24  1    1    2    0    0 -5.5588918631e+02 -3.4593560224e+03 +2.2100712221e+03 4.1433011422e+03 7.9829010000e+01 0.0000e+00 -1.0000e+00
       22  1    1    2    0    0 -6.3550092637e+02 -4.9153284019e+03 +3.1203480566e+03 5.8566958877e+03 0.0000000000e+00 0.0000e+00 -1.0000e+00
       22  1    1    2    0    0 +2.6659274672e-01 +2.3781214325e+01 -2.6232327070e+01 3.5408363560e+01 0.0000000000e+00 0.0000e+00 -1.0000e+00
</event>
<event>
 6      1 +1.4834189e-01 1.00022900e+04 7.81653100e-03 6.93858700e-02
  1000022 -1    0    0    0    0 +0.0000000000e+00 +0.0000000000e+00 +4.4721471353e+01 1.0000100000e+04 1.0000000000e+04 0.0000e+00 -1.0000e+00
  1000022 -1    0    0    0    0 -0.0000000000e+00 -0.0000000000e+00 -4.4721471353e+01 1.0000100000e+04 1.0000000000e+04 0.0000e+00 -1.0000e+00
      -24  1    1    2    0    0 -4.3810888503e+02 -2.4771267341e+02 +2.9036475816e+02 5.8650262346e+02 7.9829010000e+01 0.0000e+00 0.0000e+00
       24  1    1    2    0    0 +5.7839236528e+02 +3.2433048948e+02 -4.3571868215e+02 7.9746563276e+02 7.9829010000e+01 0.0000e+00 1.0000e+00
       22  1    1    2    0    0 -6.5613388966e+03 -3.5332281502e+03 +5.7551801842e+03 9.4157829324e+03 0.0000000000e+00 0.0000e+00 1.0000e+00
       22  1    1    2    0    0 +6.4210554164e+03 +3.4566103341e+03 -5.6098262602e+03 9.2004488114e+03 0.0000000000e+00 0.0000e+00 1.0000e+00
</event>
<event>
 6      1 +1.4834189e-01 1.00062800e+04 7.81653100e-03 6.93834600e-02
  1000022 -1    0    0    0    0 +0.0000000000e+00 +0.0000000000e+00 +4.4721471353e+01 1.0000100000e+04 1.0000000000e+04 0.0000e+00 -1.0000e+00
  1000022 -1    0    0    0    0 -0.0000000000e+00 -0.0000000000e+00 -4.4721471353e+01 1.0000100000e+04 1.0000000000e+04 0.0000e+00 -1.0000e+00
      -24  1    1    2    0    0 -4.2488656232e+03 +5.9478085533e+03 -4.0966986084e+03 8.3796538013e+03 7.9829010000e+01 0.0000e+00 -1.0000e+00
       24  1    1    2    0    0 +5.2080054035e+03 -6.9321948433e+03 +4.9254918126e+03 9.9722358524e+03 7.9829010000e+01 0.0000e+00 -1.0000e+00
       22  1    1    2    0    0 -9.7211790024e+02 +9.9794601953e+02 -8.3964811879e+02 1.6266279333e+03 0.0000000000e+00 0.0000e+00 -1.0000e+00
       22  1    1    2    0    0 +1.2978119914e+01 -1.3559729595e+01 +1.0854914629e+01 2.1682413030e+01 0.0000000000e+00 0.0000e+00 1.0000e+00
</event>
<event>
 6      1 +1.4834189e-01 1.00010900e+04 7.81653100e-03 6.93866000e-02
  1000022 -1    0    0    0    0 +0.0000000000e+00 +0.0000000000e+00 +4.4721471353e+01 1.0000100000e+04 1.0000000000e+04 0.0000e+00 -1.0000e+00
  1000022 -1    0    0    0    0 -0.0000000000e+00 -0.0000000000e+00 -4.4721471353e+01 1.0000100000e+04 1.0000000000e+04 0.0000e+00 -1.0000e+00
      -24  1    1    2    0    0 -4.5439019127e+01 +1.4185293594e+01 -2.4991447564e+01 9.6245365096e+01 7.9829010000e+01 0.0000e+00 1.0000e+00
       24  1    1    2    0    0 +3.6836732983e+03 -2.6211879752e+03 +1.5063576290e+03 4.7660844880e+03 7.9829010000e+01 0.0000e+00 1.0000e+00
       22  1    1    2    0    0 -7.6551639759e+03 +5.8762400800e+03 -2.2303010902e+03 9.9048460830e+03 0.0000000000e+00 0.0000e+00 1.0000e+00
       22  1    1    2    0    0 +4.0169296967e+03 -3.2692373984e+03 +7.4893490877e+02 5.2330240639e+03 0.0000000000e+00 0.0000e+00 1.0000e+00
</event>
<event>
 6      1 +1.4834189e-01 1.00394700e+04 7.81653100e-03 6.93634800e-02
  1000022 -1    0    0    0    0 +0.0000000000e+00 +0.0000000000e+00 +4.4721471353e+01 1.0000100000e+04 1.0000000000e+04 0.0000e+00 1.0000e+00
  1000022 -1    0    0    0    0 -0.0000000000e+00 -0.0000000000e+00 -4.4721471353e+01 1.0000100000e+04 1.0000000000e+04 0.0000e+00 1.0000e+00
      -24  1    1    2    0    0 +8.1481786648e+03 +5.1108899894e+03 -2.3912699608e+03 9.9115365475e+03 7.9829010000e+01 0.0000e+00 1.0000e+00
       24  1    1    2    0    0 -7.3950134125e+03 -4.8185791549e+03 +2.1297402650e+03 9.0800382549e+03 7.9829010000e+01 0.0000e+00 1.0000e+00
       22  1    1    2    0    0 -7.6129955947e+02 -3.9915168095e+02 +1.9163708680e+02 8.8069509860e+02 0.0000000000e+00 0.0000e+00 1.0000e+00
       22  1    1    2    0    0 +8.1343071671e+00 +1.0684084649e+02 +6.9892608988e+01 1.2793009897e+02 0.0000000000e+00 0.0000e+00 -1.0000e+00
</event>
<event>
 6      1 +1.4834189e-01 1.00007500e+04 7.81653100e-03 6.93868000e-02
  1000022 -1    0    0    0    0 +0.0000000000e+00 +0.0000000000e+00 +4.4721471353e+01 1.0000100000e+04 1.0000000000e+04 0.0000e+00 1.0000e+00
  1000022 -1    0    0    0    0 -0.0000000000e+00 -0.0000000000e+00 -4.4721471353e+01 1.0000100000e+04 1.0000000000e+04 0.0000e+00 1.0000e+00
      -24  1    1    2    0    0 -3.9775776781e+03 +3.6576048439e+03 -1.8882820436e+03 5.7246117009e+03 7.9829010000e+01 0.0000e+00 1.0000e+00
       24  1    1    2    0    0 +6.8311876995e+03 -6.2865119414e+03 +3.0619865831e+03 9.7758627384e+03 7.9829010000e+01 0.0000e+00 1.0000e+00
       22  1    1    2    0    0 -3.0083636964e+03 +2.7839097572e+03 -1.2185973203e+03 4.2761413792e+03 0.0000000000e+00 0.0000e+00 1.0000e+00
       22  1    1    2    0    0 +1.5475367503e+02 -1.5500265968e+02 +4.4892780743e+01 2.2358418148e+02 0.0000000000e+00 0.0000e+00 1.0000e+00
</event>
<event>
 6      1 +1.4834189e-01 1.00008000e+04 7.81653100e-03 6.93867700e-02
  1000022 -1    0    0    0    0 +0.0000000000e+00 +0.0000000000e+00 +4.4721471353e+01 1.0000100000e+04 1.0000000000e+04 0.0000e+00 -1.0000e+00
  1000022 -1    0    0    0    0 -0.0000000000e+00 -0.0000000000e+00 -4.4721471353e+01 1.0000100000e+04 1.0000000000e+04 0.0000e+00 -1.0000e+00
      -24  1    1    2    0    0 +9.0999334021e+03 +1.6951173928e+03 +1.6733003665e+03 9.4068335632e+03 7.9829010000e+01 0.0000e+00 -1.0000e+00
       24  1    1    2    0    0 -9.5627770967e+03 -1.7332956766e+03 -1.7709453591e+03 9.8789493287e+03 7.9829010000e+01 0.0000e+00 -1.0000e+00
       22  1    1    2    0    0 +5.8048382009e+02 +6.0814313379e+01 +1.1016522207e+02 5.9396651610e+02 0.0000000000e+00 0.0000e+00 1.0000e+00
       22  1    1    2    0    0 -1.1764012550e+02 -2.2636029617e+01 -1.2520229462e+01 1.2045059199e+02 0.0000000000e+00 0.0000e+00 -1.0000e+00
</event>
<event>
 6      1 +1.4834189e-01 1.01198900e+04 7.81653100e-03 6.93153700e-02
  1000022 -1    0    0    0    0 +0.0000000000e+00 +0.0000000000e+00 +4.4721471353e+01 1.0000100000e+04 1.0000000000e+04 0.0000e+00 1.0000e+00
  1000022 -1    0    0    0    0 -0.0000000000e+00 -0.0000000000e+00 -4.4721471353e+01 1.0000100000e+04 1.0000000000e+04 0.0000e+00 1.0000e+00
      -24  1    1    2    0    0 +3.8525653695e+03 -4.9107488891e+03 -4.6783637243e+03 7.8007162739e+03 7.9829010000e+01 0.0000e+00 -1.0000e+00
       24  1    1    2    0    0 -4.6336281798e+03 +6.1010221624e+03 +4.5688813849e+03 8.9204277540e+03 7.9829010000e+01 0.0000e+00 -1.0000e+00
       22  1    1    2    0    0 -3.0820733913e+02 +8.4457659223e+02 +3.3626936737e+02 9.5988461362e+02 0.0000000000e+00 0.0000e+00 1.0000e+00
       22  1    1    2    0    0 +1.0892701494e+03 -2.0348498656e+03 -2.2678702800e+02 2.3191713585e+03 0.0000000000e+00 0.0000e+00 -1.0000e+00
</event>
<event>
 6      1 +1.4834189e-01 1.00221000e+04 7.81653100e-03 6.93739300e-02
  1000022 -1    0    0    0    0 +0.0000000000e+00 +0.0000000000e+00 +4.4721471353e+01 1.0000100000e+04 1.0000000000e+04 0.0000e+00 -1.0000e+00
  1000022 -1    0    0    0    0 -0.0000000000e+00 -0.0000000000e+00 -4.4721471353e+01 1.0000100000e+04 1.0000000000e+04 0.0000e+00 -1.0000e+00
      -24  1    1    2    0    0 -6.5082477604e+00 -1.4265278030e+03 +7.3403886317e+02 1.6063031013e+03 7.9829010000e+01 0.0000e+00 -1.0000e+00
       24  1    1    2    0    0 +1.2567436017e+03 +5.1383035070e+03 -1.0063572772e+03 5.3852293406e+03 7.9829010000e+01 0.0000e+00 -1.0000e+00
       22  1    1    2    0    0 -1.5404951098e+03 -7.9453665240e+03 +2.1412752144e+03 8.3717999216e+03 0.0000000000e+00 0.0000e+00 -1.0000e+00
       22  1    1    2    0    0 +2.9025975585e+02 +4.2335908199e+03 -1.8689568003e+03 4.6368676364e+03 0.0000000000e+00 0.0000e+00 -1.0000e+00
</event>
<event>
 6      1 +1.4834189e-01 1.00081300e+04 7.81653100e-03 6.93823500e-02
  1000022 -1    0    0    0    0 +0.0000000000e+00 +0.0000000000e+00 +4.4721471353e+01 1.0000100000e+04 1.0000000000e+04 0.0000e+00 1.0000e+00
  1000022 -1    0    0    0    0 -0.0000000000e+00 -0.0000000000e+00 -4.4721471353e+01 1.0000100000e+04 1.0000000000e+04 0.0000e+00 1.0000e+00
      -24  1    1    2    0    0 +1.2327177933e+03 -5.9685619715e+02 -1.5394511726e+03 2.0620652418e+03 7.9829010000e+01 0.0000e+00 1.0000e+00
       24  1    1    2    0    0 -5.7293077740e+03 +3.9212464144e+03 +7.1309109241e+03 9.9527586271e+03 7.9829010000e+01 0.0000e+00 -1.0000e+00
       22  1    1    2    0    0 +4.5258987683e+03 -3.3397457799e+03 -5.6126883201e+03 7.9460639133e+03 0.0000000000e+00 0.0000e+00 -1.0000e+00
       22  1    1    2    0    0 -2.9308787646e+01 +1.5355562706e+01 +2.1228568651e+01 3.9312217774e+01 0.0000000000e+00 0.0000e+00 1.0000e+00
</event>
<event>
 6      1 +1.4834189e-01 8.65799300e+03 7.81653100e-03 7.02685900e-02
  1000022 -1    0    0    0    0 +0.0000000000e+00 +0.0000000000e+00 +4.4721471353e+01 1.0000100000e+04 1.0000000000e+04 0.0000e+00 1.0000e+00
  1000022 -1    0    0    0    0 -0.0000000000e+00 -0.0000000000e+00 -4.4721471353e+01 1.0000100000e+04 1.0000000000e+04 0.0000e+00 1.0000e+00
      -24  1    1    2    0    0 +3.9551020418e+03 +2.7271172457e+03 -6.6746267407e+03 8.2241726290e+03 7.9829010000e+01 0.0000e+00 -1.0000e+00
       24  1    1    2    0    0 -1.7197854015e+03 +1.1647203960e+03 -1.3972502682e+03 2.5045790885e+03 7.9829010000e+01 0.0000e+00 -1.0000e+00
       22  1    1    2    0    0 +8.1256891192e+00 +6.0007435822e+00 -1.5031425484e+01 1.8110204286e+01 0.0000000000e+00 0.0000e+00 1.0000e+00
       22  1    1    2    0    0 -2.2434423295e+03 -3.8978383853e+03 +8.0869084343e+03 9.2533380782e+03 0.0000000000e+00 0.0000e+00 -1.0000e+00
</event>
<event>
 6      1 +1.4834189e-01 1.00726100e+04 7.81653100e-03 6.93436000e-02
  1000022 -1    0    0    0    0 +0.0000000000e+00 +0.0000000000e+00 +4.4721471353e+01 1.0000100000e+04 1.0000000000e+04 0.0000e+00 1.0000e+00
  1000022 -1    0    0    0    0 -0.0000000000e+00 -0.0000000000e+00 -4.4721471353e+01 1.0000100000e+04 1.0000000000e+04 0.0000e+00 1.0000e+00
      -24  1    1    2    0    0 -5.3845522864e+03 +1.9483705125e+03 +5.8571708922e+03 8.1916039033e+03 7.9829010000e+01 0.0000e+00 1.0000e+00
       24  1    1    2    0    0 +1.2147278658e+02 -4.6850189775e+02 -7.5395837330e+02 8.9948627870e+02 7.9829010000e+01 0.0000e+00 1.0000e+00
       22  1    1    2    0    0 +6.6228312648e+03 -2.0912259454e+03 -5.9925806532e+03 9.1731206686e+03 0.0000000000e+00 0.0000e+00 1.0000e+00
       22  1    1    2    0    0 -1.3597517650e+03 +6.1135733068e+02 +8.8936813436e+02 1.7359891493e+03 0.0000000000e+00 0.0000e+00 1.0000e+00
</event>
<event>
 6      1 +1.4834189e-01 1.00436800e+04 7.81653100e-03 6.93609500e-02
  1000022 -1    0    0    0    0 +0.0000000000e+00 +0.0000000000e+00 +4.4721471353e+01 1.0000100000e+04 1.0000000000e+04 0.0000e+00 1.0000e+00
  1000022 -1    0    0    0    0 -0.0000000000e+00 -0.0000000000e+00 -4.4721471353e+01 1.0000100000e+04 1.0000000000e+04 0.0000e+00 1.0000e+00
      -24  1    1    2    0    0 -6.2657302643e+03 -5.8940592579e+03 -2.5272950133e+02 8.6063671286e+03 7.9829010000e+01 0.0000e+00 -1.0000e+00
       24  1    1    2    0    0 +7.2266002246e+03 +6.8448491806e+03 -2.2424286331e+02 9.9565239237e+03 7.9829010000e+01 0.0000e+00 -1.0000e+00
       22  1    1    2    0    0 -9.2947482496e+02 -9.2411971683e+02 +4.8042876017e+02 1.3959700910e+03 0.0000000000e+00 0.0000e+00 -1.0000e+00
       22  1    1    2    0    0 -3.1395135303e+01 -2.6670205897e+01 -3.4563955373e+00 4.1338856701e+01 0.0000000000e+00 0.0000e+00 -1.0000e+00
</event>
<event>
 6      1 +1.4834189e-01 6.04801700e+03 7.81653100e-03 7.25646300e-02
  1000022 -1    0    0    0    0 +0.0000000000e+00 +0.0000000000e+00 +4.4721471353e+01 1.0000100000e+04 1.0000000000e+04 0.0000e+00 -1.0000e+00
  1000022 -1    0    0    0    0 -0.0000000000e+00 -0.0000000000e+00 -4.4721471353e+01 1.0000100000e+04 1.0000000000e+04 0.0000e+00 -1.0000e+00
      -24  1    1    2    0    0 +2.8500048201e+03 -2.0024267057e+03 -5.3364718464e+03 6.3731110632e+03 7.9829010000e+01 0.0000e+00 -1.0000e+00
       24  1    1    2    0    0 -2.5630478095e+03 +6.8766568714e+03 +4.3961399969e+03 8.5551179621e+03 7.9829010000e+01 0.0000e+00 -1.0000e+00
       22  1    1    2    0    0 -8.3734317906e+01 +1.8797764968e+01 +2.9467865575e+01 9.0736690839e+01 0.0000000000e+00 0.0000e+00 1.0000e+00
       22  1    1    2    0    0 -2.0322269269e+02 -4.8930279307e+03 +9.1086398388e+02 4.9812342839e+03 0.0000000000e+00 0.0000e+00 -1.0000e+00
</event>
<event>
 6      1 +1.4834189e-01 1.03808800e+04 7.81653100e-03 6.91622800e-02
  1000022 -1    0    0    0    0 +0.0000000000e+00 +0.0000000000e+00 +4.4721471353e+01 1.0000100000e+04 1.0000000000e+04 0.0000e+00 -1.0000e+00
  1000022 -1    0    0    0    0 -0.0000000000e+00 -0.0000000000e+00 -4.4721471353e+01 1.0000100000e+04 1.0000000000e+04 0.0000e+00 -1.0000e+00
      -24  1    1    2    0    0 +2.8972604754e+03 -5.5224016202e+03 +2.4593380587e+03 6.7041594756e+03 7.9829010000e+01 0.0000e+00 1.0000e+00
       24  1    1    2    0    0 -3.9424443571e+03 +8.6750636247e+03 -1.3134900991e+03 9.6193152206e+03 7.9829010000e+01 0.0000e+00 1.0000e+00
       22  1    1    2    0    0 +8.1077444980e+02 -2.6882227528e+03 -1.3529348743e+03 3.1167819223e+03 0.0000000000e+00 0.0000e+00 1.0000e+00
       22  1    1    2    0    0 +2.3440943189e+02 -4.6443925162e+02 +2.0708691471e+02 5.5994338147e+02 0.0000000000e+00 0.0000e+00 1.0000e+00
</event>
<event>
 6      1 +1.4834189e-01 1.00156200e+04 7.81653100e-03 6.93778300e-02
  1000022 -1    0    0    0    0 +0.0000000000e+00 +0.0000000000e+00 +4.4721471353e+01 1.0000100000e+04 1.0000000000e+04 0.0000e+00 -1.0000e+00
  1000022 -1    0    0    0    0 -0.0000000000e+00 -0.0000000000e+00 -4.4721471353e+01 1.0000100000e+04 1.0000000000e+04 0.0000e+00 -1.0000e+00
      -24  1    1    2    0    0 -2.0981321141e+02 -7.0020318629e+02 -7.5242010452e+02 1.0520526462e+03 7.9829010000e+01 0.0000e+00 -1.0000e+00
       24  1    1    2    0    0 +4.3414163296e+03 +4.3142763970e+03 +7.8151870263e+03 9.9269530826e+03 7.9829010000e+01 0.0000e+00 -1.0000e+00
       22  1    1    2    0    0 -4.1293833713e+03 -3.6714495346e+03 -7.0579214558e+03 8.9635709396e+03 0.0000000000e+00 0.0000e+00 -1.0000e+00
       22  1    1    2    0    0 -2.2197468731e+00 +5.7376323862e+01 -4.8454659802e+00 5.7623331704e+01 0.0000000000e+00 0.0000e+00 1.0000e+00
</event>
<event>
 6      1 +1.4834189e-01 1.00268700e+04 7.81653100e-03 6.93710500e-02
  1000022 -1    0    0    0    0 +0.0000000000e+00 +0.0000000000e+00 +4.4721471353e+01 1.0000100000e+04 1.0000000000e+04 0.0000e+00 -1.0000e+00
  1000022 -1    0    0    0    0 -0.0000000000e+00 -0.0000000000e+00 -4.4721471353e+01 1.0000100000e+04 1.0000000000e+04 0.0000e+00 -1.0000e+00
      -24  1    1    2    0    0 -7.5839666310e+03 -2.2771709656e+03 -6.0629028420e+03 9.9733254740e+03 7.9829010000e+01 0.0000e+00 1.0000e+00
       24  1    1    2    0    0 +7.5723027529e+03 +2.1850826192e+03 +5.9806814337e+03 9.8939010565e+03 7.9829010000e+01 0.0000e+00 1.0000e+00
       22  1    1    2    0    0 -5.2491045416e+00 +8.6286092034e+01 +7.0981597670e+01 1.1185360962e+02 0.0000000000e+00 0.0000e+00 1.0000e+00
       22  1    1    2    0    0 +1.6912982651e+01 +5.8022543093e+00 +1.1239810693e+01 2.1119859887e+01 0.0000000000e+00 0.0000e+00 1.0000e+00
</event>
<event>
 6      1 +1.4834189e-01 1.00331200e+04 7.81653100e-03 6.93672900e-02
  1000022 -1    0    0    0    0 +0.0000000000e+00 +0.0000000000e+00 +4.4721471353e+01 1.0000100000e+04 1.0000000000e+04 0.0000e+00 1.0000e+00
  1000022 -1    0    0    0    0 -0.0000000000e+00 -0.0000000000e+00 -4.4721471353e+01 1.0000100000e+04 1.0000000000e+04 0.0000e+00 1.0000e+00
      -24  1    1    2    0    0 +4.5350460583e+03 -8.5172319407e+03 +7.3750168072e+02 9.6778181468e+03 7.9829010000e+01 0.0000e+00 1.0000e+00
       24  1    1    2    0    0 -4.2002043535e+03 +8.3831035520e+03 -6.4364823431e+02 9.3988721396e+03 7.9829010000e+01 0.0000e+00 1.0000e+00
       22  1    1    2    0    0 +1.5926767316e+02 -2.3577494511e+02 +5.2099532705e+01 2.8925832358e+02 0.0000000000e+00 0.0000e+00 -1.0000e+00
       22  1    1    2    0    0 -4.9410937790e+02 +3.6990333379e+02 -1.4595297912e+02 6.3425139006e+02 0.0000000000e+00 0.0000e+00 1.0000e+00
</event>
<event>
 6      1 +1.4834189e-01 1.06695900e+04 7.81653100e-03 6.89981200e-02
  1000022 -1    0    0    0    0 +0.0000000000e+00 +0.0000000000e+00 +4.4721471353e+01 1.0000100000e+04 1.0000000000e+04 0.0000e+00 1.0000e+00
  1000022 -1    0    0    0    0 -0.0000000000e+00 -0.0000000000e+00 -4.4721471353e+01 1.0000100000e+04 1.0000000000e+04 0.0000e+00 1.0000e+00
      -24  1    1    2    0    0 -8.7695726944e+02 +3.6857575774e+02 -9.2816455475e+03 9.3306065656e+03 7.9829010000e+01 0.0000e+00 -1.0000e+00
       24  1    1    2    0    0 +1.9374822962e+03 +9.8230364604e+02 +2.9174778288e+03 3.6382423852e+03 7.9829010000e+01 0.0000e+00 1.0000e+00
       22  1    1    2    0    0 +1.6995035822e+02 +5.4917102546e+02 +5.6502874440e+02 8.0605795168e+02 0.0000000000e+00 0.0000e+00 1.0000e+00
       22  1    1    2    0    0 -1.2304753850e+03 -1.9000504292e+03 +5.7991389743e+03 6.2252930975e+03 0.0000000000e+00 0.0000e+00 -1.0000e+00
</event>
<event>
 6      1 +1.4834189e-01 1.00233700e+04 7.81653100e-03 6.93731600e-02
  1000022 -1    0    0    0    0 +0.0000000000e+00 +0.0000000000e+00 +4.4721471353e+01 1.0000100000e+04 1.0000000000e+04 0.0000e+00 1.0000e+00
  1000022 -1    0    0    0    0 -0.0000000000e+00 -0.0000000000e+00 -4.4721471353e+01 1.0000100000e+04 1.0000000000e+04 0.0000e+00 1.0000e+00
      -24  1    1    2    0    0 +5.8164344090e+03 -4.3839458131e+03 +6.7871409127e+03 9.9559803417e+03 7.9829010000e+01 0.0000e+00 -1.0000e+00
       24  1    1    2    0    0 -5.7295231941e+03 +4.3622595078e+03 -6.8155879369e+03 9.9154100087e+03 7.9829010000e+01 0.0000e+00 -1.0000e+00
       22  1    1    2    0    0 -9.7515566261e+01 +3.9229722111e+01 +2.4632572644e+01 1.0795841975e+02 0.0000000000e+00 0.0000e+00 -1.0000e+00
       22  1    1    2    0    0 +1.0604351385e+01 -1.7543416810e+01 +3.8144515923e+00 2.0851229762e+01 0.0000000000e+00 0.0000e+00 -1.0000e+00
</event>
<event>
 6      1 +1.4834189e-01 1.00322800e+04 7.81653100e-03 6.93678000e-02
  1000022 -1    0    0    0    0 +0.0000000000e+00 +0.0000000000e+00 +4.4721471353e+01 1.0000100000e+04 1.0000000000e+04 0.0000e+00 -1.0000e+00
  1000022 -1    0    0    0    0 -0.0000000000e+00 -0.0000000000e+00 -4.4721471353e+01 1.0000100000e+04 1.0000000000e+04 0.0000e+00 -1.0000e+00
      -24  1    1    2    0    0 +1.0372158681e+02 +9.7710836838e+02 +9.1492855759e+01 9.9007198961e+02 7.9829010000e+01 0.0000e+00 -1.0000e+00
       24  1    1    2    0    0 -8.8586904445e+02 -6.8474136318e+02 +3.5463270506e+02 1.1771880583e+03 7.9829010000e+01 0.0000e+00 1.0000e+00
       22  1    1    2    0    0 -1.7719609195e+03 -7.9232767327e+03 +3.5347611272e+03 8.8550943478e+03 0.0000000000e+00 0.0000e+00 1.0000e+00
       22  1    1    2    0    0 +2.5541083772e+03 +7.6309097275e+03 -3.9808866880e+03 8.9778456042e+03 0.0000000000e+00 0.0000e+00 1.0000e+00
</event>
<event>
 6      1 +1.4834189e-01 1.00197500e+04 7.81653100e-03 6.93753400e-02
  1000022 -1    0    0    0    0 +0.0000000000e+00 +0.0000000000e+00 +4.4721471353e+01 1.0000100000e+04 1.0000000000e+04 0.0000e+00 1.0000e+00
  1000022 -1    0    0    0    0 -0.0000000000e+00 -0.0000000000e+00 -4.4721471353e+01 1.0000100000e+04 1.0000000000e+04 0.0000e+00 1.0000e+00
      -24  1    1    2    0    0 +8.0396383657e+03 -1.1224755047e+03 -5.5312285974e+03 9.8232682330e+03 7.9829010000e+01 0.0000e+00 1.0000e+00
       24  1    1    2    0    0 -8.1932249172e+03 +1.2190520411e+03 +5.5282721873e+03 9.9590756836e+03 7.9829010000e+01 0.0000e+00 1.0000e+00
       22  1    1    2    0    0 -9.9190370118e+00 +1.1725332054e+01 +1.4865352119e+01 2.1374035665e+01 0.0000000000e+00 0.0000e+00 -1.0000e+00
       22  1    1    2    0    0 +1.6350558851e+02 -1.0830186842e+02 -1.1908942023e+01 1.9648204772e+02 0.0000000000e+00 0.0000e+00 1.0000e+00
</event>
<event>
 6      1 +1.4834189e-01 8.57112100e+03 7.81653100e-03 7.03311200e-02
  1000022 -1    0    0    0    0 +0.0000000000e+00 +0.0000000000e+00 +4.4721471353e+01 1.0000100000e+04 1.0000000000e+04 0.0000e+00 1.0000e+00
  1000022 -1    0    0    0    0 -0.0000000000e+00 -0.0000000000e+00 -4.4721471353e+01 1.0000100000e+04 1.0000000000e+04 0.0000e+00 1.0000e+00
      -24  1    1    2    0    0 -1.9747660439e+03 +3.5781985132e+02 -1.0043059515e+03 2.2456043928e+03 7.9829010000e+01 0.0000e+00 -1.0000e+00
       24  1    1    2    0    0 +3.9753714506e+03 -7.4795534981e+03 +4.2218147275e+03 9.4645333200e+03 7.9829010000e+01 0.0000e+00 1.0000e+00
       22  1    1    2    0    0 -3.7587605359e+02 +4.4096178473e+01 -1.5475162372e+02 4.0887081781e+02 0.0000000000e+00 0.0000e+00 1.0000e+00
       22  1    1    2    0    0 -1.6247293532e+03 +7.0776374683e+03 -3.0627571522e+03 7.8811914694e+03 0.0000000000e+00 0.0000e+00 1.0000e+00
</event>
<event>
 6      1 +1.4834189e-01 1.00001100e+04 7.81653100e-03 6.93871900e-02
  1000022 -1    0    0    0    0 +0.0000000000e+00 +0.0000000000e+00 +4.4721471353e+01 1.0000100000e+04 1.0000000000e+04 0.0000e+00 -1.0000e+00
  1000022 -1    0    0    0    0 -0.0000000000e+00 -0.0000000000e+00 -4.4721471353e+01 1.0000100000e+04 1.0000000000e+04 0.0000e+00 -1.0000e+00
      -24  1    1    2    0    0 -9.4836506776e+03 -1.9279594693e+03 -2.4710873376e+03 9.9884584992e+03 7.9829010000e+01 0.0000e+00 1.0000e+00
       24  1    1    2    0    0 +8.3115118994e+03 +1.7021693936e+03 +2.1781030723e+03 8.7595157608e+03 7.9829010000e+01 0.0000e+00 1.0000e+00
       22  1    1    2    0    0 -1.1215675087e+01 -2.2915232562e-01 -3.0827703985e+00 1.1633888076e+01 0.0000000000e+00 0.0000e+00 1.0000e+00
       22  1    1    2    0    0 +1.1833544532e+03 +2.2601922810e+02 +2.9606703573e+02 1.2405918519e+03 0.0000000000e+00 0.0000e+00 1.0000e+00
</event>
<event>
 6      1 +1.4834189e-01 1.00280200e+04 7.81653100e-03 6.93703600e-02
  1000022 -1    0    0    0    0 +0.0000000000e+00 +0.0000000000e+00 +4.4721471353e+01 1.0000100000e+04 1.0000000000e+04 0.0000e+00 -1.0000e+00
  1000022 -1    0    0    0    0 -0.0000000000e+00 -0.0000000000e+00 -4.4721471353e+01 1.0000100000e+04 1.0000000000e+04 0.0000e+00 -1.0000e+00
      -24  1    1    2    0    0 -8.9213141960e+03 -2.6903985271e+03 +3.5510407615e+03 9.9721790186e+03 7.9829010000e+01 0.0000e+00 -1.0000e+00
       24  1    1    2    0    0 +8.1477174084e+03 +2.5351953889e+03 -3.4327101879e+03 9.1979555627e+03 7.9829010000e+01 0.0000e+00 -1.0000e+00
       22  1    1    2    0    0 +2.4864547930e+02 +8.5026691021e+01 -1.4432573212e+02 2.9980665355e+02 0.0000000000e+00 0.0000e+00 1.0000e+00
       22  1    1    2    0    0 +5.2495130826e+02 +7.0176447201e+01 +2.5995158505e+01 5.3025876518e+02 0.0000000000e+00 0.0000e+00 1.0000e+00
</event>
<event>
 6      1 +1.4834189e-01 1.00113500e+04 7.81653100e-03 6.93804100e-02
  1000022 -1    0    0    0    0 +0.0000000000e+00 +0.0000000000e+00 +4.4721471353e+01 1.0000100000e+04 1.0000000000e+04 0.0000e+00 -1.0000e+00
  1000022 -1    0    0    0    0 -0.0000000000e+00 -0.0000000000e+00 -4.4721471353e+01 1.0000100000e+04 1.0000000000e+04 0.0000e+00 -1.0000e+00
      -24  1    1    2    0    0 +7.4559668798e+03 +6.2512635430e+03 -1.8952382433e+03 9.9130236894e+03 7.9829010000e+01 0.0000e+00 1.0000e+00
       24  1    1    2    0    0 -5.8292832478e+02 -4.3373755358e+02 +3.0403061636e+02 7.9166974411e+02 7.9829010000e+01 0.0000e+00 0.0000e+00
       22  1    1    2    0    0 +5.5410228944e+01 +5.1100263866e+01 -8.2628869548e+00 7.5827473515e+01 0.0000000000e+00 0.0000e+00 -1.0000e+00
       22  1    1    2    0    0 -6.9284487840e+03 -5.8686262533e+03 +1.5994705139e+03 9.2196790930e+03 0.0000000000e+00 0.0000e+00 1.0000e+00
</event>
<event>
 6      1 +1.4834189e-01 1.00053700e+04 7.81653100e-03 6.93840100e-02
  1000022 -1    0    0    0    0 +0.0000000000e+00 +0.0000000000e+00 +4.4721471353e+01 1.0000100000e+04 1.0000000000e+04 0.0000e+00 -1.0000e+00
  1000022 -1    0    0    0    0 -0.0000000000e+00 -0.0000000000e+00 -4.4721471353e+01 1.0000100000e+04 1.0000000000e+04 0.0000e+00 -1.0000e+00
      -24  1    1    2    0    0 +8.9273889414e+03 -3.0134793520e+03 +1.7871708432e+03 9.5906039127e+03 7.9829010000e+01 0.0000e+00 1.0000e+00
       24  1    1    2    0    0 -9.2954231146e+03 +3.1638391919e+03 -1.8642422942e+03 9.9948257270e+03 7.9829010000e+01 0.0000e+00 1.0000e+00
       22  1    1    2    0    0 +5.2983683820e+01 -5.5691163417e+01 +2.9717736516e+01 8.2413107559e+01 0.0000000000e+00 0.0000e+00 -1.0000e+00
       22  1    1    2    0    0 +3.1505048940e+02 -9.4668676457e+01 +4.7353714438e+01 3.3235725273e+02 0.0000000000e+00 0.0000e+00 1.0000e+00
</event>
<event>
 6      1 +1.4834189e-01 1.00652000e+04 7.81653100e-03 6.93480300e-02
  1000022 -1    0    0    0    0 +0.0000000000e+00 +0.0000000000e+00 +4.4721471353e+01 1.0000100000e+04 1.0000000000e+04 0.0000e+00 1.0000e+00
  1000022 -1    0    0    0    0 -0.0000000000e+00 -0.0000000000e+00 -4.4721471353e+01 1.0000100000e+04 1.0000000000e+04 0.0000e+00 1.0000e+00
      -24  1    1    2    0    0 +6.1644572404e+03 -5.9402575991e+03 -4.9127187025e+03 9.8705810940e+03 7.9829010000e+01 0.0000e+00 1.0000e+00
       24  1    1    2    0    0 -6.1575167745e+03 +6.0131209714e+03 +4.7682318484e+03 9.8394636173e+03 7.9829010000e+01 0.0000e+00 1.0000e+00
       22  1    1    2    0    0 +1.0903692981e+01 +2.2161235274e+01 -5.9495826296e+01 6.4418663570e+01 0.0000000000e+00 0.0000e+00 1.0000e+00
       22  1    1    2    0    0 -1.7844158852e+01 -9.5024607539e+01 +2.0398268041e+02 2.2573662519e+02 0.0000000000e+00 0.0000e+00 1.0000e+00
</event>
<event>
 6      1 +1.4834189e-01 1.02577800e+04 7.81653100e-03 6.92339200e-02
  1000022 -1    0    0    0    0 +0.0000000000e+00 +0.0000000000e+00 +4.4721471353e+01 1.0000100000e+04 1.0000000000e+04 0.0000e+00 1.0000e+00
  1000022 -1    0    0    0    0 -0.0000000000e+00 -0.0000000000e+00 -4.4721471353e+01 1.0000100000e+04 1.0000000000e+04 0.0000e+00 1.0000e+00
      -24  1    1    2    0    0 -1.7206900491e+03 +8.9300836932e+03 -3.4930232487e+03 9.7424202896e+03 7.9829010000e+01 0.0000e+00 -1.0000e+00
       24  1    1    2    0    0 +7.8407933437e+02 -6.2333995971e+03 +1.6066226557e+03 6.4851877358e+03 7.9829010000e+01 0.0000e+00 -1.0000e+00
       22  1    1    2    0    0 +9.0881358417e+02 -2.5338139016e+03 +2.1611011603e+03 3.4520303075e+03 0.0000000000e+00 0.0000e+00 1.0000e+00
       22  1    1    2    0    0 +2.7797130566e+01 -1.6287019446e+02 -2.7470056727e+02 3.2056166703e+02 0.0000000000e+00 0.0000e+00 1.0000e+00
</event>
<event>
 6      1 +1.4834189e-01 1.01124900e+04 7.81653100e-03 6.93197800e-02
  1000022 -1    0    0    0    0 +0.0000000000e+00 +0.0000000000e+00 +4.4721471353e+01 1.0000100000e+04 1.0000000000e+04 0.0000e+00 1.0000e+00
  1000022 -1    0    0    0    0 -0.0000000000e+00 -0.0000000000e+00 -4.4721471353e+01 1.0000100000e+04 1.0000000000e+04 0.0000e+00 1.0000e+00
      -24  1    1    2    0    0 +6.5113050516e+03 -5.1219624796e+03 +1.7226325780e+03 8.4619991011e+03 7.9829010000e+01 0.0000e+00 -1.0000e+00
       24  1    1    2    0    0 -7.7776975604e+03 +5.4750334372e+03 -2.7003622393e+03 9.8877145678e+03 7.9829010000e+01 0.0000e+00 -1.0000e+00
       22  1    1    2    0    0 +6.7423639426e+01 -5.0038294071e+01 +1.9966598517e+01 8.6304363061e+01 0.0000000000e+00 0.0000e+00 -1.0000e+00
       22  1    1    2    0    0 +1.1989688693e+03 -3.0303266353e+02 +9.5776306277e+02 1.5641819681e+03 0.0000000000e+00 0.0000e+00 -1.0000e+00
</event>
<event>
 6      1 +1.4834189e-01 1.00043800e+04 7.81653100e-03 6.93846100e-02
  1000022 -1    0    0    0    0 +0.0000000000e+00 +0.0000000000e+00 +4.4721471353e+01 1.0000100000e+04 1.0000000000e+04 0.0000e+00 -1.0000e+00
  1000022 -1    0    0    0    0 -0.0000000000e+00 -0.0000000000e+00 -4.4721471353e+01 1.0000100000e+04 1.0000000000e+04 0.0000e+00 -1.0000e+00
      -24  1    1    2    0    0 -4.0496459246e+02 +1.5959714109e+03 -4.2103501363e+02 1.7014006639e+03 7.9829010000e+01 0.0000e+00 1.0000e+00
       24  1    1    2    0    0 +2.0387221900e+03 -6.9500214638e+03 +1.2149354841e+03 7.3444964032e+03 7.9829010000e+01 0.0000e+00 1.0000e+00
       22  1    1    2    0    0 +7.5413990362e+02 -2.4923589080e+03 +4.9890989269e+02 2.6513187288e+03 0.0000000000e+00 0.0000e+00 1.0000e+00
       22  1    1    2    0    0 -2.3878975012e+03 +7.8464089609e+03 -1.2928103632e+03 8.3029842041e+03 0.0000000000e+00 0.0000e+00 1.0000e+00
</event>
<event>
 6      1 +1.4834189e-01 1.00916500e+04 7.81653100e-03 6.93322100e-02
  1000022 -1    0    0    0    0 +0.0000000000e+00 +0.0000000000e+00 +4.4721471353e+01 1.0000100000e+04 1.0000000000e+04 0.0000e+00 1.0000e+00
  1000022 -1    0    0    0    0 -0.0000000000e+00 -0.0000000000e+00 -4.4721471353e+01 1.0000100000e+04 1.0000000000e+04 0.0000e+00 1.0000e+00
      -24  1    1    2    0    0 -6.5268172704e+03 +7.4398359125e+03 +4.7164718885e+02 9.9085481190e+03 7.9829010000e+01 0.0000e+00 1.0000e+00
       24  1    1    2    0    0 +5.7727385272e+03 -6.3829469039e+03 -2.1362574655e+02 8.6092119216e+03 7.9829010000e+01 0.0000e+00 1.0000e+00
       22  1    1    2    0    0 +8.1756316620e+02 -8.4545646385e+02 -4.6981974096e+01 1.1770358826e+03 0.0000000000e+00 0.0000e+00 1.0000e+00
       22  1    1    2    0    0 -6.3484423006e+01 -2.1143254479e+02 -2.1103946821e+02 3.0540407676e+02 0.0000000000e+00 0.0000e+00 1.0000e+00
</event>
<event>
 6      1 +1.4834189e-01 9.44237200e+03 7.81653100e-03 6.97354800e-02
  1000022 -1    0    0    0    0 +0.0000000000e+00 +0.0000000000e+00 +4.4721471353e+01 1.0000100000e+04 1.0000000000e+04 0.0000e+00 -1.0000e+00
  1000022 -1    0    0    0    0 -0.0000000000e+00 -0.0000000000e+00 -4.4721471353e+01 1.0000100000e+04 1.0000000000e+04 0.0000e+00 -1.0000e+00
      -24  1    1    2    0    0 +6.7221224656e+02 +5.3919647921e+02 +7.1053397015e+02 1.1197469987e+03 7.9829010000e+01 0.0000e+00 1.0000e+00
       24  1    1    2    0    0 +2.3444329713e+03 +6.5913791554e+02 -4.0456052272e+03 4.7227241158e+03 7.9829010000e+01 0.0000e+00 1.0000e+00
       22  1    1    2    0    0 +2.0029690338e+03 +1.4170447253e+03 -4.1213363535e+03 4.7963855186e+03 0.0000000000e+00 0.0000e+00 1.0000e+00
       22  1    1    2    0    0 -5.0196142517e+03 -2.6153791201e+03 +7.4564076106e+03 9.3613433669e+03 0.0000000000e+00 0.0000e+00 1.0000e+00
</event>
<event>
 6      1 +1.4834189e-01 1.00003100e+04 7.81653100e-03 6.93870700e-02
  1000022 -1    0    0    0    0 +0.0000000000e+00 +0.0000000000e+00 +4.4721471353e+01 1.0000100000e+04 1.0000000000e+04 0.0000e+00 1.0000e+00
  1000022 -1    0    0    0    0 -0.0000000000e+00 -0.0000000000e+00 -4.4721471353e+01 1.0000100000e+04 1.0000000000e+04 0.0000e+00 1.0000e+00
      -24  1    1    2    0    0 -5.9145044769e+03 -7.1056116932e+03 +3.5476355961e+03 9.9026850770e+03 7.9829010000e+01 0.0000e+00 1.0000e+00
       24  1    1    2    0    0 +5.9093441165e+03 +7.0935137772e+03 -3.5587384720e+03 9.8949117115e+03 7.9829010000e+01 0.0000e+00 1.0000e+00
       22  1    1    2    0    0 -5.6664263629e+01 -6.5924602938e+01 +4.4427737164e+01 9.7625385401e+01 0.0000000000e+00 0.0000e+00 -1.0000e+00
       22  1    1    2    0    0 +6.1824624002e+01 +7.8022518929e+01 -3.3324861176e+01 1.0497782607e+02 0.0000000000e+00 0.0000e+00 1.0000e+00
</event>
<event>
 6      1 +1.4834189e-01 1.00785200e+04 7.81653100e-03 6.93400600e-02
  1000022 -1    0    0    0    0 +0.0000000000e+00 +0.0000000000e+00 +4.4721471353e+01 1.0000100000e+04 1.0000000000e+04 0.0000e+00 1.0000e+00
  1000022 -1    0    0    0    0 -0.0000000000e+00 -0.0000000000e+00 -4.4721471353e+01 1.0000100000e+04 1.0000000000e+04 0.0000e+00 1.0000e+00
      -24  1    1    2    0    0 -5.6930033210e+03 +7.2224562717e+03 +2.1807253898e+03 9.4517774681e+03 7.9829010000e+01 0.0000e+00 -1.0000e+00
       24  1    1    2    0    0 +5.8780899931e+03 -7.6332610137e+03 -2.2781370167e+03 9.9002473003e+03 7.9829010000e+01 0.0000e+00 -1.0000e+00
       22  1    1    2    0    0 -3.2632543431e+02 +3.3769687484e+02 +1.6872298838e+01 4.6990652562e+02 0.0000000000e+00 0.0000e+00 -1.0000e+00
       22  1    1    2    0    0 +1.4123876221e+02 +7.3107867096e+01 +8.0539327985e+01 1.7826870598e+02 0.0000000000e+00 0.0000e+00 1.0000e+00
</event>
<event>
 6      1 +1.4834189e-01 1.05152500e+04 7.81653100e-03 6.90852200e-02
  1000022 -1    0    0    0    0 +0.0000000000e+00 +0.0000000000e+00 +4.4721471353e+01 1.0000100000e+04 1.0000000000e+04 0.0000e+00 -1.0000e+00
  1000022 -1    0    0    0    0 -0.0000000000e+00 -0.0000000000e+00 -4.4721471353e+01 1.0000100000e+04 1.0000000000e+04 0.0000e+00 -1.0000e+00
      -24  1    1    2    0    0 +6.0003489314e+03 -5.9478598855e+03 +4.3100767904e+03 9.4849543555e+03 7.9829010000e+01 0.0000e+00 -1.0000e+00
       24  1    1    2    0    0 -4.8946526099e+03 +5.2268007195e+03 -1.3921695505e+03 7.2953121017e+03 7.9829010000e+01 0.0000e+00 -1.0000e+00
       22  1    1    2    0    0 -1.1394616281e+01 -2.7972226441e+00 +7.3942111763e+00 1.3868528892e+01 0.0000000000e+00 0.0000e+00 1.0000e+00
       22  1    1    2    0    0 -1.0943017052e+03 +7.2385638870e+02 -2.9253014511e+03 3.2060650139e+03 0.0000000000e+00 0.0000e+00 1.0000e+00
</event>
<event>
 6      1 +1.4834189e-01 1.00001800e+04 7.81653100e-03 6.93871500e-02
  1000022 -1    0    0    0    0 +0.0000000000e+00 +0.0000000000e+00 +4.4721471353e+01 1.0000100000e+04 1.0000000000e+04 0.0000e+00 1.0000e+00
  1000022 -1    0    0    0    0 -0.0000000000e+00 -0.0000000000e+00 -4.4721471353e+01 1.0000100000e+04 1.0000000000e+04 0.0000e+00 1.0000e+00
      -24  1    1    2    0    0 -5.5574265661e+03 +3.1016248412e+03 -7.5560973862e+03 9.8795772721e+03 7.9829010000e+01 0.0000e+00 -1.0000e+00
       24  1    1    2    0    0 +3.2004957357e+03 -1.7539912965e+03 +4.2485638824e+03 5.6014575029e+03 7.9829010000e+01 0.0000e+00 1.0000e+00
       22  1    1    2    0    0 +2.4303081271e+03 -1.3966210141e+03 +3.3897541163e+03 4.3985657683e+03 0.0000000000e+00 0.0000e+00 -1.0000e+00
       22  1    1    2    0    0 -7.3377296698e+01 +4.8987469426e+01 -8.2220612483e+01 1.2059945667e+02 0.0000000000e+00 0.0000e+00 -1.0000e+00
</event>
<event>
 6      1 +1.4834189e-01 1.00018600e+04 7.81653100e-03 6.93861300e-02
  1000022 -1    0    0    0    0 +0.0000000000e+00 +0.0000000000e+00 +4.4721471353e+01 1.0000100000e+04 1.0000000000e+04 0.0000e+00 -1.0000e+00
  1000022 -1    0    0    0    0 -0.0000000000e+00 -0.0000000000e+00 -4.4721471353e+01 1.0000100000e+04 1.0000000000e+04 0.0000e+00 -1.0000e+00
      -24  1    1    2    0    0 +6.0069881249e+03 +1.1554699683e+03 -7.8558455166e+03 9.9568920167e+03 7.9829010000e+01 0.0000e+00 -1.0000e+00
       24  1    1    2    0    0 -5.2946932619e+03 -9.9612144493e+02 +6.7678367751e+03 8.6507815806e+03 7.9829010000e+01 0.0000e+00 -1.0000e+00
       22  1    1    2    0    0 -7.3779119080e+02 -1.6940157561e+02 +1.1190999980e+03 1.3510801385e+03 0.0000000000e+00 0.0000e+00 1.0000e+00
       22  1    1    2    0    0 +2.5496327706e+01 +1.0053052263e+01 -3.1091256454e+01 4.1446264177e+01 0.0000000000e+00 0.0000e+00 1.0000e+00
</event>
<event>
 6      1 +1.4834189e-01 1.06613200e+04 7.81653100e-03 6.90027500e-02
  1000022 -1    0    0    0    0 +0.0000000000e+00 +0.0000000000e+00 +4.4721471353e+01 1.0000100000e+04 1.0000000000e+04 0.0000e+00 -1.0000e+00
  1000022 -1    0    0    0    0 -0.0000000000e+00 -0.0000000000e+00 -4.4721471353e+01 1.0000100000e+04 1.0000000000e+04 0.0000e+00 -1.0000e+00
      -24  1    1    2    0    0 -3.3147282273e+03 +5.8806417408e+03 +6.4528173422e+03 9.3388754583e+03 7.9829010000e+01 0.0000e+00 1.0000e+00
       24  1    1    2    0    0 +2.9872627567e+03 -6.7244384309e+03 -4.9537599340e+03 8.8706212377e+03 7.9829010000e+01 0.0000e+00 1.0000e+00
       22  1    1    2    0    0 +3.1066745970e+02 +8.7856896203e+02 -1.4764985695e+03 1.7459798731e+03 0.0000000000e+00 0.0000e+00 1.0000e+00
       22  1    1    2    0    0 +1.6798010982e+01 -3.4772271879e+01 -2.2558838673e+01 4.4723430849e+01 0.0000000000e+00 0.0000e+00 1.0000e+00
</event>
<event>
 6      1 +1.4834189e-01 9.07678000e+03 7.81653100e-03 6.99772000e-02
  1000022 -1    0    0    0    0 +0.0000000000e+00 +0.0000000000e+00 +4.4721471353e+01 1.0000100000e+04 1.0000000000e+04 0.0000e+00 1.0000e+00
  1000022 -1    0    0    0    0 -0.0000000000e+00 -0.0000000000e+00 -4.4721471353e+01 1.0000100000e+04 1.0000000000e+04 0.0000e+00 1.0000e+00
      -24  1    1    2    0    0 -4.6351841873e+03 -7.9045510842e+03 -1.1945449456e+03 9.2412212716e+03 7.9829010000e+01 0.0000e+00 -1.0000e+00
       24  1    1    2    0    0 -1.1024853449e+03 +8.5924948238e+02 +2.1161225945e+01 1.4002157252e+03 7.9829010000e+01 0.0000e+00 -1.0000e+00
       22  1    1    2    0    0 +5.8417001201e+03 +6.7123995788e+03 +1.2890695878e+03 8.9912996169e+03 0.0000000000e+00 0.0000e+00 -1.0000e+00
       22  1    1    2    0    0 -1.0403058794e+02 +3.3290202307e+02 -1.1568586821e+02 3.6746338634e+02 0.0000000000e+00 0.0000e+00 -1.0000e+00
</event>
<event>
 6      1 +1.4834189e-01 1.00266900e+04 7.81653100e-03 6.93711700e-02
  1000022 -1    0    0    0    0 +0.0000000000e+00 +0.0000000000e+00 +4.4721471353e+01 1.0000100000e+04 1.0000000000e+04 0.0000e+00 -1.0000e+00
  1000022 -1    0    0    0    0 -0.0000000000e+00 -0.0000000000e+00 -4.4721471353e+01 1.0000100000e+04 1.0000000000e+04 0.0000e+00 -1.0000e+00
      -24  1    1    2    0    0 -2.4888435520e+03 +9.3312165783e+03 -1.2104098410e+03 9.7333144258e+03 7.9829010000e+01 0.0000e+00 1.0000e+00
       24  1    1    2    0    0 +2.4365910863e+03 -9.5903270970e+03 +1.2462894157e+03 9.9735129181e+03 7.9829010000e+01 0.0000e+00 1.0000e+00
       22  1    1    2    0    0 -2.5476299276e+01 +1.3386686519e+02 +1.5777559748e+01 1.3717984842e+02 0.0000000000e+00 0.0000e+00 1.0000e+00
       22  1    1    2    0    0 +7.7728764989e+01 +1.2524365350e+02 -5.1657134434e+01 1.5619280773e+02 0.0000000000e+00 0.0000e+00 1.0000e+00
</event>
<event>
 6      1 +1.4834189e-01 1.00002200e+04 7.81653100e-03 6.93871200e-02
  1000022 -1    0    0    0    0 +0.0000000000e+00 +0.0000000000e+00 +4.4721471353e+01 1.0000100000e+04 1.0000000000e+04 0.0000e+00 -1.0000e+00
  1000022 -1    0    0    0    0 -0.0000000000e+00 -0.0000000000e+00 -4.4721471353e+01 1.0000100000e+04 1.0000000000e+04 0.0000e+00 -1.0000e+00
      -24  1    1    2    0    0 -7.3938000605e+03 +6.1727535404e+03 -5.8089850740e+02 9.6496104248e+03 7.9829010000e+01 0.0000e+00 -1.0000e+00
       24  1    1    2    0    0 +7.5028882807e+03 -6.2768908790e+03 +6.2281087599e+02 9.8023955091e+03 7.9829010000e+01 0.0000e+00 -1.0000e+00
       22  1    1    2    0    0 -2.7178448927e+02 +2.1602437003e+02 -4.8949798687e+01 3.5061292025e+02 0.0000000000e+00 0.0000e+00 -1.0000e+00
       22  1    1    2    0    0 +1.6269626898e+02 -1.1188703145e+02 +7.0374300999e+00 1.9758114578e+02 0.0000000000e+00 0.0000e+00 -1.0000e+00
</event>
<event>
 6      1 +1.4834189e-01 1.00204600e+04 7.81653100e-03 6.93749200e-02
  1000022 -1    0    0    0    0 +0.0000000000e+00 +0.0000000000e+00 +4.4721471353e+01 1.0000100000e+04 1.0000000000e+04 0.0000e+00 1.0000e+00
  1000022 -1    0    0    0    0 -0.0000000000e+00 -0.0000000000e+00 -4.4721471353e+01 1.0000100000e+04 1.0000000000e+04 0.0000e+00 1.0000e+00
      -24  1    1    2    0    0 -2.2659614028e+03 -8.1512290461e+03 +5.2926147913e+03 9.9797424837e+03 7.9829010000e+01 0.0000e+00 1.0000e+00
       24  1    1    2    0    0 +2.1888392353e+03 +8.0967860220e+03 -5.2084729055e+03 9.8733744870e+03 7.9829010000e+01 0.0000e+00 1.0000e+00
       22  1    1    2    0    0 +6.0015816637e+01 -3.1693178562e+00 -4.8349262124e+01 7.7133611157e+01 0.0000000000e+00 0.0000e+00 -1.0000e+00
       22  1    1    2    0    0 +1.7106350860e+01 +5.7612341972e+01 -3.5792623679e+01 6.9949418132e+01 0.0000000000e+00 0.0000e+00 -1.0000e+00
</event>
<event>
 6      1 +1.4834189e-01 1.00142900e+04 7.81653100e-03 6.93786300e-02
  1000022 -1    0    0    0    0 +0.0000000000e+00 +0.0000000000e+00 +4.4721471353e+01 1.0000100000e+04 1.0000000000e+04 0.0000e+00 1.0000e+00
  1000022 -1    0    0    0    0 -0.0000000000e+00 -0.0000000000e+00 -4.4721471353e+01 1.0000100000e+04 1.0000000000e+04 0.0000e+00 1.0000e+00
      -24  1    1    2    0    0 -2.2755763473e+03 -3.0067152099e+03 -7.5831779863e+03 8.4693296729e+03 7.9829010000e+01 0.0000e+00 -1.0000e+00
       24  1    1    2    0    0 +2.7125227454e+03 +3.4950745434e+03 +8.9520194441e+03 9.9859075956e+03 7.9829010000e+01 0.0000e+00 -1.0000e+00
       22  1    1    2    0    0 -1.3786708378e+01 +2.7150711572e+01 -1.1377326678e+01 3.2506584396e+01 0.0000000000e+00 0.0000e+00 -1.0000e+00
       22  1    1    2    0    0 -4.2315968979e+02 -5.1551004514e+02 -1.3574641311e+03 1.5124561472e+03 0.0000000000e+00 0.0000e+00 -1.0000e+00
</event>
<event>
 6      1 +1.4834189e-01 1.00044700e+04 7.81653100e-03 6.93845600e-02
  1000022 -1    0    0    0    0 +0.0000000000e+00 +0.0000000000e+00 +4.4721471353e+01 1.0000100000e+04 1.0000000000e+04 0.0000e+00 -1.0000e+00
  1000022 -1    0    0    0    0 -0.0000000000e+00 -0.0000000000e+00 -4.4721471353e+01 1.0000100000e+04 1.0000000000e+04 0.0000e+00 -1.0000e+00
      -24  1    1    2    0    0 -1.8835572714e+03 -9.7559193992e+03 +8.9874204216e+02 9.9769665354e+03 7.9829010000e+01 0.0000e+00 1.0000e+00
       24  1    1    2    0    0 +1.8986771947e+03 +9.7474058715e+03 -8.8897316228e+02 9.9706339953e+03 7.9829010000e+01 0.0000e+00 1.0000e+00
       22  1    1    2    0    0 +7.0058712073e+00 +2.3774340736e+01 -3.9385545859e+00 2.5096089756e+01 0.0000000000e+00 0.0000e+00 -1.0000e+00
       22  1    1    2    0    0 -2.2125794433e+01 -1.5260813074e+01 -5.8303252933e+00 2.7503379574e+01 0.0000000000e+00 0.0000e+00 1.0000e+00
</event>
<event>
 6      1 +1.4834189e-01 1.00002000e+04 7.81653100e-03 6.93871400e-02
  1000022 -1    0    0    0    0 +0.0000000000e+00 +0.0000000000e+00 +4.4721471353e+01 1.0000100000e+04 1.0000000000e+04 0.0000e+00 1.0000e+00
  1000022 -1    0    0    0    0 -0.0000000000e+00 -0.0000000000e+00 -4.4721471353e+01 1.0000100000e+04 1.0000000000e+04 0.0000e+00 1.0000e+00
      -24  1    1    2    0    0 -6.5384774641e+03 +4.1305002333e+03 -6.2947775010e+03 9.9721269639e+03 7.9829010000e+01 0.0000e+00 -1.0000e+00
       24  1    1    2    0    0 +6.5366254499e+03 -4.1351884825e+03 +6.2953223741e+03 9.9731997134e+03 7.9829010000e+01 0.0000e+00 -1.0000e+00
       22  1    1    2    0    0 -1.6346241515e+01 +1.4578936710e+01 -1.7556084576e+01 2.8070645039e+01 0.0000000000e+00 0.0000e+00 1.0000e+00
       22  1    1    2    0    0 +1.8198255784e+01 -9.8906874954e+00 +1.7011211488e+01 2.6802677646e+01 0.0000000000e+00 0.0000e+00 1.0000e+00
</event>
<event>
 6      1 +1.4834189e-01 1.00061900e+04 7.81653100e-03 6.93835200e-02
  1000022 -1    0    0    0    0 +0.0000000000e+00 +0.0000000000e+00 +4.4721471353e+01 1.0000100000e+04 1.0000000000e+04 0.0000e+00 1.0000e+00
  1000022 -1    0    0    0    0 -0.0000000000e+00 -0.0000000000e+00 -4.4721471353e+01 1.0000100000e+04 1.0000000000e+04 0.0000e+00 1.0000e+00
      -24  1    1    2    0    0 -8.5584536287e+03 +6.1848346605e+01 -5.1597451434e+03 9.9940130252e+03 7.9829010000e+01 0.0000e+00 1.0000e+00
       24  1    1    2    0    0 +1.1059780660e+03 -3.2351588919e+01 +6.3048523537e+02 1.2759774334e+03 7.9829010000e+01 0.0000e+00 0.0000e+00
       22  1    1    2    0    0 +9.6664990003e+00 +6.7920698954e+00 +3.2007673872e+01 3.4118390981e+01 0.0000000000e+00 0.0000e+00 1.0000e+00
       22  1    1    2    0    0 +7.4428090637e+03 -3.6288827581e+01 +4.4972522342e+03 8.6960911504e+03 0.0000000000e+00 0.0000e+00 1.0000e+00
</event>
<event>
 6      1 +1.4834189e-01 1.00418400e+04 7.81653100e-03 6.93620500e-02
  1000022 -1    0    0    0    0 +0.0000000000e+00 +0.0000000000e+00 +4.4721471353e+01 1.0000100000e+04 1.0000000000e+04 0.0000e+00 1.0000e+00
  1000022 -1    0    0    0    0 -0.0000000000e+00 -0.0000000000e+00 -4.4721471353e+01 1.0000100000e+04 1.0000000000e+04 0.0000e+00 1.0000e+00
      -24  1    1    2    0    0 -3.7049303459e+01 -1.9089444962e+02 -2.2830727435e+02 3.1033888597e+02 7.9829010000e+01 0.0000e+00 1.0000e+00
       24  1    1    2    0    0 -5.4979524288e+03 +6.8647943597e+03 +1.7285192834e+03 8.9636507124e+03 7.9829010000e+01 0.0000e+00 1.0000e+00
       22  1    1    2    0    0 +5.8334151876e+03 -7.5988126598e+03 -1.7121649563e+03 9.7315053012e+03 0.0000000000e+00 0.0000e+00 1.0000e+00
       22  1    1    2    0    0 -2.9841345532e+02 +9.2491274971e+02 +2.1195294729e+02 9.9470510040e+02 0.0000000000e+00 0.0000e+00 1.0000e+00
</event>
<event>
 6      1 +1.4834189e-01 1.00023700e+04 7.81653100e-03 6.93858200e-02
  1000022 -1    0    0    0    0 +0.0000000000e+00 +0.0000000000e+00 +4.4721471353e+01 1.0000100000e+04 1.0000000000e+04 0.0000e+00 -1.0000e+00
  1000022 -1    0    0    0    0 -0.0000000000e+00 -0.0000000000e+00 -4.4721471353e+01 1.0000100000e+04 1.0000000000e+04 0.0000e+00 -1.0000e+00
      -24  1    1    2    0    0 -6.9567415495e+03 -1.7956519364e+03 +5.1909207295e+03 8.8641214768e+03 7.9829010000e+01 0.0000e+00 1.0000e+00
       24  1    1    2    0    0 +7.8748342687e+03 +2.0760629990e+03 -5.7568830091e+03 9.9735212932e+03 7.9829010000e+01 0.0000e+00 1.0000e+00
       22  1    1    2    0    0 +1.7664476082e+01 +4.6610393501e+00 -1.6028539998e+01 2.4303767147e+01 0.0000000000e+00 0.0000e+00 1.0000e+00
       22  1    1    2    0    0 -9.3575719522e+02 -2.8507210192e+02 +5.8199081959e+02 1.1382534629e+03 0.0000000000e+00 0.0000e+00 -1.0000e+00
</event>
<event>
 6      1 +1.4834189e-01 1.00279700e+04 7.81653100e-03 6.93703900e-02
  1000022 -1    0    0    0    0 +0.0000000000e+00 +0.0000000000e+00 +4.4721471353e+01 1.0000100000e+04 1.0000000000e+04 0.0000e+00 1.0000e+00
  1000022 -1    0    0    0    0 -0.0000000000e+00 -0.0000000000e+00 -4.4721471353e+01 1.0000100000e+04 1.0000000000e+04 0.0000e+00 1.0000e+00
      -24  1    1    2    0    0 +7.0196971893e+02 -8.8289672832e+03 +4.5820972884e+03 9.9722320975e+03 7.9829010000e+01 0.0000e+00 -1.0000e+00
       24  1    1    2    0    0 -6.2333640718e+02 +8.6483934410e+03 -4.5631394101e+03 9.7985647588e+03 7.9829010000e+01 0.0000e+00 -1.0000e+00
       22  1    1    2    0    0 +2.0296093134e+01 +2.1168097092e+01 +2.2867833017e+01 3.7188136789e+01 0.0000000000e+00 0.0000e+00 -1.0000e+00
       22  1    1    2    0    0 -9.8929404885e+01 +1.5940574520e+02 -4.1825711282e+01 1.9221500690e+02 0.0000000000e+00 0.0000e+00 1.0000e+00
</event>
<event>
 6      1 +1.4834189e-01 1.00034700e+04 7.81653100e-03 6.93851600e-02
  1000022 -1    0    0    0    0 +0.0000000000e+00 +0.0000000000e+00 +4.4721471353e+01 1.0000100000e+04 1.0000000000e+04 0.0000e+00 -1.0000e+00
  1000022 -1    0    0    0    0 -0.0000000000e+00 -0.0000000000e+00 -4.4721471353e+01 1.0000100000e+04 1.0000000000e+04 0.0000e+00 -1.0000e+00
      -24  1    1    2    0    0 +3.0659146658e+02 +4.4965064227e+02 +1.9664271196e+02 5.8414472050e+02 7.9829010000e+01 0.0000e+00 0.0000e+00
       24  1    1    2    0    0 -5.6315850590e+03 -7.0065290153e+03 -2.4311661348e+03 9.3125260034e+03 7.9829010000e+01 0.0000e+00 1.0000e+00
       22  1    1    2    0    0 -4.3178346192e+02 -5.1705801010e+02 -1.1976907077e+02 6.8420068263e+02 0.0000000000e+00 0.0000e+00 -1.0000e+00
       22  1    1    2    0    0 +5.7567770543e+03 +7.0739363831e+03 +2.3542924937e+03 9.4193285934e+03 0.0000000000e+00 0.0000e+00 1.0000e+00
</event>
<event>
 6      1 +1.4834189e-01 1.00933400e+04 7.81653100e-03 6.93312000e-02
  1000022 -1    0    0    0    0 +0.0000000000e+00 +0.0000000000e+00 +4.4721471353e+01 1.0000100000e+04 1.0000000000e+04 0.0000e+00 1.0000e+00
  1000022 -1    0    0    0    0 -0.0000000000e+00 -0.0000000000e+00 -4.4721471353e+01 1.0000100000e+04 1.0000000000e+04 0.0000e+00 1.0000e+00
      -24  1    1    2    0    0 -6.7063921929e+03 -3.2636150551e+03 +6.5201721001e+03 9.9068610749e+03 7.9829010000e+01 0.0000e+00 1.0000e+00
       24  1    1    2    0    0 +6.3131908522e+03 +2.6909712573e+03 -6.0061862214e+03 9.1202165896e+03 7.9829010000e+01 0.0000e+00 1.0000e+00
       22  1    1    2    0    0 +3.4636744385e+01 +4.4401879149e+02 -2.7556857732e+02 5.2372744062e+02 0.0000000000e+00 0.0000e+00 1.0000e+00
       22  1    1    2    0    0 +3.5856459627e+02 +1.2862500627e+02 -2.3841730131e+02 4.4939489483e+02 0.0000000000e+00 0.0000e+00 -1.0000e+00
</event>
<event>
 6      1 +1.4834189e-01 1.00308500e+04 7.81653100e-03 6.93686600e-02
  1000022 -1    0    0    0    0 +0.0000000000e+00 +0.0000000000e+00 +4.4721471353e+01 1.0000100000e+04 1.0000000000e+04 0.0000e+00 -1.0000e+00
  1000022 -1    0    0    0    0 -0.0000000000e+00 -0.0000000000e+00 -4.4721471353e+01 1.0000100000e+04 1.0000000000e+04 0.0000e+00 -1.0000e+00
      -24  1    1    2    0    0 -4.6699364551e+03 +1.4140550347e+03 +8.6750787444e+03 9.9534527692e+03 7.9829010000e+01 0.0000e+00 1.0000e+00
       24  1    1    2    0    0 +2.8100918963e+02 +1.2085438623e+02 -2.8391498145e+02 4.2491450300e+02 7.9829010000e+01 0.0000e+00 1.0000e+00
       22  1    1    2    0    0 +4.4029503237e+03 -1.5336897146e+03 -8.3985576989e+03 9.6059329123e+03 0.0000000000e+00 0.0000e+00 1.0000e+00
       22  1    1    2    0    0 -1.4023058222e+01 -1.2197063109e+00 +7.3939358965e+00 1.5899815515e+01 0.0000000000e+00 0.0000e+00 -1.0000e+00
</event>
<event>
 6      1 +1.4834189e-01 1.00035600e+04 7.81653100e-03 6.93851000e-02
  1000022 -1    0    0    0    0 +0.0000000000e+00 +0.0000000000e+00 +4.4721471353e+01 1.0000100000e+04 1.0000000000e+04 0.0000e+00 -1.0000e+00
  1000022 -1    0    0    0    0 -0.0000000000e+00 -0.0000000000e+00 -4.4721471353e+01 1.0000100000e+04 1.0000000000e+04 0.0000e+00 -1.0000e+00
      -24  1    1    2    0    0 -1.6206376593e+03 -1.4503305966e+02 +9.1490635335e+02 1.8684023436e+03 7.9829010000e+01 0.0000e+00 -1.0000e+00
       24  1    1    2    0    0 +6.2730717587e+03 +8.0787284385e+02 -4.1193446484e+03 7.5484740726e+03 7.9829010000e+01 0.0000e+00 -1.0000e+00
       22  1    1    2    0    0 -6.7570826755e+03 -1.1622239809e+03 +4.3656963570e+03 8.1282369273e+03 0.0000000000e+00 0.0000e+00 -1.0000e+00
       22  1    1    2    0    0 +2.1046485761e+03 +4.9938419667e+02 -1.1612580620e+03 2.4550866566e+03 0.0000000000e+00 0.0000e+00 -1.0000e+00
</event>
<event>
 6      1 +1.4834189e-01 1.11997000e+04 7.81653100e-03 6.87098700e-02
  1000022 -1    0    0    0    0 +0.0000000000e+00 +0.0000000000e+00 +4.4721471353e+01 1.0000100000e+04 1.0000000000e+04 0.0000e+00 1.0000e+00
  1000022 -1    0    0    0    0 -0.0000000000e+00 -0.0000000000e+00 -4.4721471353e+01 1.0000100000e+04 1.0000000000e+04 0.0000e+00 1.0000e+00
      -24  1    1    2    0    0 -5.0551800971e+03 +6.6847124936e+03 -2.2080242397e+03 8.6672931559e+03 7.9829010000e+01 0.0000e+00 1.0000e+00
       24  1    1    2    0    0 +5.1857817791e+03 -6.0416436827e+03 -8.2889763324e+02 8.0054503313e+03 7.9829010000e+01 0.0000e+00 1.0000e+00
       22  1    1    2    0    0 -9.7645658392e+01 +3.0435406577e+01 -8.5342082627e+01 1.3320758103e+02 0.0000000000e+00 0.0000e+00 1.0000e+00
       22  1    1    2    0    0 -3.2956023564e+01 -6.7350421745e+02 +3.1222639555e+03 3.1942489318e+03 0.0000000000e+00 0.0000e+00 1.0000e+00
</event>
<event>
 6      1 +1.4834189e-01 1.00727400e+04 7.81653100e-03 6.93435200e-02
  1000022 -1    0    0    0    0 +0.0000000000e+00 +0.0000000000e+00 +4.4721471353e+01 1.0000100000e+04 1.0000000000e+04 0.0000e+00 1.0000e+00
  1000022 -1    0    0    0    0 -0.0000000000e+00 -0.0000000000e+00 -4.4721471353e+01 1.0000100000e+04 1.0000000000e+04 0.0000e+00 1.0000e+00
      -24  1    1    2    0    0 +3.9463385286e+02 -3.6394058556e+03 +5.1634719634e+02 3.6978369295e+03 7.9829010000e+01 0.0000e+00 -1.0000e+00
       24  1    1    2    0    0 +6.9875261070e+02 +9.8875559325e+03 -5.4419780917e+02 9.9274639992e+03 7.9829010000e+01 0.0000e+00 -1.0000e+00
       22  1    1    2    0    0 -1.1148209285e+03 -6.2452698086e+03 +5.7730282517e+00 6.3439935382e+03 0.0000000000e+00 0.0000e+00 -1.0000e+00
       22  1    1    2    0    0 +2.1434464981e+01 -2.8802683239e+00 +2.2077584575e+01 3.0905533086e+01 0.0000000000e+00 0.0000e+00 -1.0000e+00
</event>
<event>
 6      1 +1.4834189e-01 1.00018200e+04 7.81653100e-03 6.93861600e-02
  1000022 -1    0    0    0    0 +0.0000000000e+00 +0.0000000000e+00 +4.4721471353e+01 1.0000100000e+04 1.0000000000e+04 0.0000e+00 -1.0000e+00
  1000022 -1    0    0    0    0 -0.0000000000e+00 -0.0000000000e+00 -4.4721471353e+01 1.0000100000e+04 1.0000000000e+04 0.0000e+00 -1.0000e+00
      -24  1    1    2    0    0 -1.0102631351e+02 -1.5938291496e+02 +2.9057833716e+01 2.0694506068e+02 7.9829010000e+01 0.0000e+00 1.0000e+00
       24  1    1    2    0    0 +3.9098687248e+03 +5.2740185950e+03 -6.9005995886e+02 6.6018861701e+03 7.9829010000e+01 0.0000e+00 1.0000e+00
       22  1    1    2    0    0 +2.3635665873e+03 +2.4290608431e+03 -2.6972440381e+02 3.3999315943e+03 0.0000000000e+00 0.0000e+00 1.0000e+00
       22  1    1    2    0    0 -6.1724089985e+03 -7.5436965232e+03 +9.3072652895e+02 9.7914371749e+03 0.0000000000e+00 0.0000e+00 1.0000e+00
</event>
<event>
 6      1 +1.4834189e-01 1.03711300e+04 7.81653100e-03 6.91679200e-02
  1000022 -1    0    0    0    0 +0.0000000000e+00 +0.0000000000e+00 +4.4721471353e+01 1.0000100000e+04 1.0000000000e+04 0.0000e+00 1.0000e+00
  1000022 -1    0    0    0    0 -0.0000000000e+00 -0.0000000000e+00 -4.4721471353e+01 1.0000100000e+04 1.0000000000e+04 0.0000e+00 1.0000e+00
      -24  1    1    2    0    0 +6.2039151272e+02 +6.4961932944e+03 +6.8695976580e+03 9.4753974904e+03 7.9829010000e+01 0.0000e+00 1.0000e+00
       24  1    1    2    0    0 -1.1243892899e+03 -6.9626170342e+03 -6.3265143538e+03 9.4748848953e+03 7.9829010000e+01 0.0000e+00 1.0000e+00
       22  1    1    2    0    0 +3.7951002582e+00 +1.0848696199e+02 +1.0877934487e+02 1.5367748560e+02 0.0000000000e+00 0.0000e+00 1.0000e+00
       22  1    1    2    0    0 +5.0020267694e+02 +3.5793677775e+02 -6.5186264909e+02 8.9624012862e+02 0.0000000000e+00 0.0000e+00 1.0000e+00
</event>
<event>
 6      1 +1.4834189e-01 1.01481600e+04 7.81653100e-03 6.92985600e-02
  1000022 -1    0    0    0    0 +0.0000000000e+00 +0.0000000000e+00 +4.4721471353e+01 1.0000100000e+04 1.0000000000e+04 0.0000e+00 -1.0000e+00
  1000022 -1    0    0    0    0 -0.0000000000e+00 -0.0000000000e+00 -4.4721471353e+01 1.0000100000e+04 1.0000000000e+04 0.0000e+00 -1.0000e+00
      -24  1    1    2    0    0 -9.6143948986e+03 -1.8272401559e+03 -6.8697052809e+01 9.7870571578e+03 7.9829010000e+01 0.0000e+00 1.0000e+00
       24  1    1    2    0    0 +9.4915990793e+03 +2.1742336375e+03 +2.0538070152e+02 9.7399332080e+03 7.9829010000e+01 0.0000e+00 1.0000e+00
       22  1    1    2    0    0 +1.8697871302e+02 -3.3705836894e+02 -1.3445251400e+02 4.0822403373e+02 0.0000000000e+00 0.0000e+00 -1.0000e+00
       22  1    1    2    0    0 -6.4182893736e+01 -9.9351126161e+00 -2.2311347140e+00 6.4985600506e+01 0.0000000000e+00 0.0000e+00 -1.0000e+00
</event>
<event>
 6      1 +1.4834189e-01 1.00736300e+04 7.81653100e-03 6.93429900e-02
  1000022 -1    0    0    0    0 +0.0000000000e+00 +0.0000000000e+00 +4.4721471353e+01 1.0000100000e+04 1.0000000000e+04 0.0000e+00 1.0000e+00
  1000022 -1    0    0    0    0 -0.0000000000e+00 -0.0000000000e+00 -4.4721471353e+01 1.0000100000e+04 1.0000000000e+04 0.0000e+00 1.0000e+00
      -24  1    1    2    0    0 +2.4631757680e+03 +9.2127691516e+03 -1.2544557867e+03 9.6188555606e+03 7.9829010000e+01 0.0000e+00 -1.0000e+00
       24  1    1    2    0    0 -2.6410643794e+03 -9.3721180370e+03 +1.1948349850e+03 9.8104954446e+03 7.9829010000e+01 0.0000e+00 -1.0000e+00
       22  1    1    2    0    0 +2.6506819716e+01 +2.8378665986e+02 -1.1598432764e+02 3.0771714945e+02 0.0000000000e+00 0.0000e+00 1.0000e+00
       22  1    1    2    0    0 +1.5138179177e+02 -1.2443777443e+02 +1.7560512933e+02 2.6313184534e+02 0.0000000000e+00 0.0000e+00 1.0000e+00
</event>
<event>
 6      1 +1.4834189e-01 1.04002400e+04 7.81653100e-03 6.91511000e-02
  1000022 -1    0    0    0    0 +0.0000000000e+00 +0.0000000000e+00 +4.4721471353e+01 1.0000100000e+04 1.0000000000e+04 0.0000e+00 -1.0000e+00
  1000022 -1    0    0    0    0 -0.0000000000e+00 -0.0000000000e+00 -4.4721471353e+01 1.0000100000e+04 1.0000000000e+04 0.0000e+00 -1.0000e+00
      -24  1    1    2    0    0 -1.4320304499e+03 -3.0067783934e+03 -5.8881195927e+03 6.7651868063e+03 7.9829010000e+01 0.0000e+00 -1.0000e+00
       24  1    1    2    0    0 -8.9391915813e+01 +4.4759396135e+02 +4.7207057692e+03 4.7433919192e+03 7.9829010000e+01 0.0000e+00 -1.0000e+00
       22  1    1    2    0    0 +2.0992313920e+03 +3.7577085945e+03 +3.6705325014e+03 5.6568502864e+03 0.0000000000e+00 0.0000e+00 -1.0000e+00
       22  1    1    2    0    0 -5.7780902627e+02 -1.1985241625e+03 -2.5031186780e+03 2.8347709881e+03 0.0000000000e+00 0.0000e+00 -1.0000e+00
</event>
<event>
 6      1 +1.4834189e-01 1.03488100e+04 7.81653100e-03 6.91808500e-02
  1000022 -1    0    0    0    0 +0.0000000000e+00 +0.0000000000e+00 +4.4721471353e+01 1.0000100000e+04 1.0000000000e+04 0.0000e+00 1.0000e+00
  1000022 -1    0    0    0    0 -0.0000000000e+00 -0.0000000000e+00 -4.4721471353e+01 1.0000100000e+04 1.0000000000e+04 0.0000e+00 1.0000e+00
      -24  1    1    2    0    0 -1.6272811563e+03 -7.3502122924e+03 -5.6690701873e+03 9.4243511270e+03 7.9829010000e+01 0.0000e+00 -1.0000e+00
       24  1    1    2    0    0 +9.8182605783e+02 +2.7948442507e+03 +1.9768160169e+03 3.5622059218e+03 7.9829010000e+01 0.0000e+00 -1.0000e+00
       22  1    1    2    0    0 -4.8651438737e+00 +4.3097464505e+03 +4.3016576781e+03 6.0891868847e+03 0.0000000000e+00 0.0000e+00 -1.0000e+00
       22  1    1    2    0    0 +6.5032024230e+02 +2.4562159114e+02 -6.0940350774e+02 9.2445606647e+02 0.0000000000e+00 0.0000e+00 1.0000e+00
</event>
<event>
 6      1 +1.4834189e-01 1.00453600e+04 7.81653100e-03 6.93599400e-02
  1000022 -1    0    0    0    0 +0.0000000000e+00 +0.0000000000e+00 +4.4721471353e+01 1.0000100000e+04 1.0000000000e+04 0.0000e+00 1.0000e+00
  1000022 -1    0    0    0    0 -0.0000000000e+00 -0.0000000000e+00 -4.4721471353e+01 1.0000100000e+04 1.0000000000e+04 0.0000e+00 1.0000e+00
      -24  1    1    2    0    0 -7.4435761629e+02 +1.3773371683e+03 +5.0380436144e+02 1.6466078591e+03 7.9829010000e+01 0.0000e+00 -1.0000e+00
       24  1    1    2    0    0 +4.2571202334e+02 -2.5795578159e+03 -5.2273838513e+02 2.6673914866e+03 7.9829010000e+01 0.0000e+00 -1.0000e+00
       22  1    1    2    0    0 -2.6849617481e+03 +7.3813874741e+03 +2.7079205056e+03 8.3082329106e+03 0.0000000000e+00 0.0000e+00 -1.0000e+00
       22  1    1    2    0    0 +3.0036073411e+03 -6.1791668265e+03 -2.6889864819e+03 7.3779677438e+03 0.0000000000e+00 0.0000e+00 -1.0000e+00
</event>
<event>
 6      1 +1.4834189e-01 1.00402000e+04 7.81653100e-03 6.93630400e-02
  1000022 -1    0    0    0    0 +0.0000000000e+00 +0.0000000000e+00 +4.4721471353e+01 1.0000100000e+04 1.0000000000e+04 0.0000e+00 1.0000e+00
  1000022 -1    0    0    0    0 -0.0000000000e+00 -0.0000000000e+00 -4.4721471353e+01 1.0000100000e+04 1.0000000000e+04 0.0000e+00 1.0000e+00
      -24  1    1    2    0    0 -4.5155143235e+03 -3.3395520586e+03 -4.9465890726e+03 7.4844902085e+03 7.9829010000e+01 0.0000e+00 -1.0000e+00
       24  1    1    2    0    0 +5.8704508468e+03 +3.8112042469e+03 +7.0186159288e+03 9.9123565908e+03 7.9829010000e+01 0.0000e+00 -1.0000e+00
       22  1    1    2    0    0 +8.2127057712e+00 -2.0531489420e+01 +4.2201719732e+01 4.7644262428e+01 0.0000000000e+00 0.0000e+00 -1.0000e+00
       22  1    1    2    0    0 -1.3631492291e+03 -4.5112069889e+02 -2.1142285760e+03 2.5557089383e+03 0.0000000000e+00 0.0000e+00 -1.0000e+00
</event>
<event>
 6      1 +1.4834189e-01 1.02550200e+04 7.81653100e-03 6.92355300e-02
  1000022 -1    0    0    0    0 +0.0000000000e+00 +0.0000000000e+00 +4.4721471353e+01 1.0000100000e+04 1.0000000000e+04 0.0000e+00 -1.0000e+00
  1000022 -1    0    0    0    0 -0.0000000000e+00 -0.0000000000e+00 -4.4721471353e+01 1.0000100000e+04 1.0000000000e+04 0.0000e+00 -1.0000e+00
      -24  1    1    2    0    0 -2.3835061538e+03 +6.8774013196e+03 -6.3077203640e+03 9.6318980143e+03 7.9829010000e+01 0.0000e+00 -1.0000e+00
       24  1    1    2    0    0 +6.1219822008e+02 +1.1551927355e+02 +1.1060229313e+03 1.2719240381e+03 7.9829010000e+01 0.0000e+00 -1.0000e+00
       22  1    1    2    0    0 +1.8438679477e+03 -7.0292030325e+03 +5.2807637242e+03 8.9830957800e+03 0.0000000000e+00 0.0000e+00 -1.0000e+00
       22  1    1    2    0    0 -7.2560013982e+01 +3.6282439346e+01 -7.9066291579e+01 1.1328216761e+02 0.0000000000e+00 0.0000e+00 -1.0000e+00
</event>
<event>
 6      1 +1.4834189e-01 1.00122200e+04 7.81653100e-03 6.93798800e-02
  1000022 -1    0    0    0    0 +0.0000000000e+00 +0.0000000000e+00 +4.4721471353e+01 1.0000100000e+04 1.0000000000e+04 0.0000e+00 -1.0000e+00
  1000022 -1    0    0    0    0 -0.0000000000e+00 -0.0000000000e+00 -4.4721471353e+01 1.0000100000e+04 1.0000000000e+04 0.0000e+00 -1.0000e+00
      -24  1    1    2    0    0 +3.7738281130e+03 -3.8518522562e+03 -8.3290479790e+03 9.9225983158e+03 7.9829010000e+01 0.0000e+00 -1.0000e+00
       24  1    1    2    0    0 -3.7044467777e+03 +3.8430940285e+03 +8.3179542871e+03 9.8836751178e+03 7.9829010000e+01 0.0000e+00 -1.0000e+00
       22  1    1    2    0    0 -3.8076257302e+01 +3.0117286771e+01 +9.2313258894e+01 1.0430047987e+02 0.0000000000e+00 0.0000e+00 -1.0000e+00
       22  1    1    2    0    0 -3.1305078029e+01 -2.1359059063e+01 -8.1219567047e+01 8.9626086525e+01 0.0000000000e+00 0.0000e+00 -1.0000e+00
</event>
<event>
 6      1 +1.4834189e-01 1.00383800e+04 7.81653100e-03 6.93641300e-02
  1000022 -1    0    0    0    0 +0.0000000000e+00 +0.0000000000e+00 +4.4721471353e+01 1.0000100000e+04 1.0000000000e+04 0.0000e+00 1.0000e+00
  1000022 -1    0    0    0    0 -0.0000000000e+00 -0.0000000000e+00 -4.4721471353e+01 1.0000100000e+04 1.0000000000e+04 0.0000e+00 1.0000e+00
      -24  1    1    2    0    0 +3.1445163119e+03 -8.4904345267e+03 -2.3784096536e+03 9.3615525656e+03 7.9829010000e+01 0.0000e+00 1.0000e+00
       24  1    1    2    0    0 -3.3347890524e+03 +8.4674842955e+03 +2.1178011531e+03 9.3440121315e+03 7.9829010000e+01 0.0000e+00 1.0000e+00
       22  1    1    2    0    0 +3.9577026353e+02 -5.3875289323e+02 +1.0585944318e+02 6.7682715901e+02 0.0000000000e+00 0.0000e+00 1.0000e+00
       22  1    1    2    0    0 -2.0549752307e+02 +5.6170312442e+02 +1.5474905727e+02 6.1780814392e+02 0.0000000000e+00 0.0000e+00 1.0000e+00
</event>
<event>
 6      1 +1.4834189e-01 8.25106700e+03 7.81653100e-03 7.05681000e-02
  1000022 -1    0    0    0    0 +0.0000000000e+00 +0.0000000000e+00 +4.4721471353e+01 1.0000100000e+04 1.0000000000e+04 0.0000e+00 1.0000e+00
  1000022 -1    0    0    0    0 -0.0000000000e+00 -0.0000000000e+00 -4.4721471353e+01 1.0000100000e+04 1.0000000000e+04 0.0000e+00 1.0000e+00
      -24  1    1    2    0    0 +3.0412169024e+03 +5.4030022737e+02 +8.0399451528e+02 3.1927581234e+03 7.9829010000e+01 0.0000e+00 1.0000e+00
       24  1    1    2    0    0 +6.6542436047e+03 -5.2646850427e+02 -1.5034883579e+03 6.8427316877e+03 7.9829010000e+01 0.0000e+00 1.0000e+00
       22  1    1    2    0    0 -9.8152582251e+03 +8.2429316311e-01 +7.2262341865e+02 9.8418229668e+03 0.0000000000e+00 0.0000e+00 1.0000e+00
       22  1    1    2    0    0 +1.1979771802e+02 -1.4656016259e+01 -2.3129576001e+01 1.2288722204e+02 0.0000000000e+00 0.0000e+00 -1.0000e+00
</event>
<event>
 6      1 +1.4834189e-01 1.03828600e+04 7.81653100e-03 6.91611400e-02
  1000022 -1    0    0    0    0 +0.0000000000e+00 +0.0000000000e+00 +4.4721471353e+01 1.0000100000e+04 1.0000000000e+04 0.0000e+00 1.0000e+00
  1000022 -1    0    0    0    0 -0.0000000000e+00 -0.0000000000e+00 -4.4721471353e+01 1.0000100000e+04 1.0000000000e+04 0.0000e+00 1.0000e+00
      -24  1    1    2    0    0 -1.1533703540e+02 +2.8329550526e+03 +1.8685799738e+03 3.3966013530e+03 7.9829010000e+01 0.0000e+00 1.0000e+00
       24  1    1    2    0    0 +1.2301719977e+03 -1.9643693478e+03 -4.0015332361e+03 4.6250092961e+03 7.9829010000e+01 0.0000e+00 1.0000e+00
       22  1    1    2    0    0 -2.5159562099e+03 +1.3626198848e+03 +6.3734647916e+03 6.9862595178e+03 0.0000000000e+00 0.0000e+00 1.0000e+00
       22  1    1    2    0    0 +1.4011212476e+03 -2.2312055896e+03 -4.2405115292e+03 4.9923298332e+03 0.0000000000e+00 0.0000e+00 1.0000e+00
</event>
<event>
 6      1 +1.4834189e-01 1.03055500e+04 7.81653100e-03 6.92060000e-02
  1000022 -1    0    0    0    0 +0.0000000000e+00 +0.0000000000e+00 +4.4721471353e+01 1.0000100000e+04 1.0000000000e+04 0.0000e+00 1.0000e+00
  1000022 -1    0    0    0    0 -0.0000000000e+00 -0.0000000000e+00 -4.4721471353e+01 1.0000100000e+04 1.0000000000e+04 0.0000e+00 1.0000e+00
      -24  1    1    2    0    0 +2.1394828036e+03 -5.2119395890e+02 -9.6502663115e+02 2.4055516788e+03 7.9829010000e+01 0.0000e+00 -1.0000e+00
       24  1    1    2    0    0 -8.3304215932e+03 -3.7276238361e+03 +2.3451542079e+03 9.4232279137e+03 7.9829010000e+01 0.0000e+00 -1.0000e+00
       22  1    1    2    0    0 +6.4321297568e+03 +4.3510905624e+03 -1.4511002548e+03 7.8999983696e+03 0.0000000000e+00 0.0000e+00 -1.0000e+00
       22  1    1    2    0    0 -2.4119096715e+02 -1.0227276745e+02 +7.0972678061e+01 2.7142203784e+02 0.0000000000e+00 0.0000e+00 1.0000e+00
</event>
<event>
 6      1 +1.4834189e-01 1.00339100e+04 7.81653100e-03 6.93668200e-02
  1000022 -1    0    0    0    0 +0.0000000000e+00 +0.0000000000e+00 +4.4721471353e+01 1.0000100000e+04 1.0000000000e+04 0.0000e+00 -1.0000e+00
  1000022 -1    0    0    0    0 -0.0000000000e+00 -0.0000000000e+00 -4.4721471353e+01 1.0000100000e+04 1.0000000000e+04 0.0000e+00 -1.0000e+00
      -24  1    1    2    0    0 +1.4443720107e+02 +3.6897206774e+03 -2.6484071228e+03 4.5448139391e+03 7.9829010000e+01 0.0000e+00 -1.0000e+00
       24  1    1    2    0    0 -1.7466475028e+02 -4.5267420197e+02 +3.5587088769e+02 6.0699132421e+02 7.9829010000e+01 0.0000e+00 -1.0000e+00
       22  1    1    2    0    0 -1.3297957353e+03 -7.9472627259e+03 +4.7612129009e+03 9.3592996436e+03 0.0000000000e+00 0.0000e+00 -1.0000e+00
       22  1    1    2    0    0 +1.3600232845e+03 +4.7102162505e+03 -2.4686766658e+03 5.4890950931e+03 0.0000000000e+00 0.0000e+00 -1.0000e+00
</event>
<event>
 6      1 +1.4834189e-01 7.48701800e+03 7.81653100e-03 7.11806200e-02
  1000022 -1    0    0    0    0 +0.0000000000e+00 +0.0000000000e+00 +4.4721471353e+01 1.0000100000e+04 1.0000000000e+04 0.0000e+00 1.0000e+00
  1000022 -1    0    0    0    0 -0.0000000000e+00 -0.0000000000e+00 -4.4721471353e+01 1.0000100000e+04 1.0000000000e+04 0.0000e+00 1.0000e+00
      -24  1    1    2    0    0 +3.0037204722e+03 -9.2547377920e+01 +3.2132550521e+03 4.4002593551e+03 7.9829010000e+01 0.0000e+00 -1.0000e+00
       24  1    1    2    0    0 -3.3344471633e+03 +5.9390943862e+03 -5.5309308615e+03 8.7743346687e+03 7.9829010000e+01 0.0000e+00 -1.0000e+00
       22  1    1    2    0    0 -9.8669704910e+01 +1.5729954344e+02 -2.2472543144e+02 2.9151393889e+02 0.0000000000e+00 0.0000e+00 -1.0000e+00
       22  1    1    2    0    0 +4.2939639606e+02 -6.0038465517e+03 +2.5424012409e+03 6.5340920372e+03 0.0000000000e+00 0.0000e+00 -1.0000e+00
</event>
<event>
 6      1 +1.4834189e-01 1.00863500e+04 7.81653100e-03 6.93353800e-02
  1000022 -1    0    0    0    0 +0.0000000000e+00 +0.0000000000e+00 +4.4721471353e+01 1.0000100000e+04 1.0000000000e+04 0.0000e+00 1.0000e+00
  1000022 -1    0    0    0    0 -0.0000000000e+00 -0.0000000000e+00 -4.4721471353e+01 1.0000100000e+04 1.0000000000e+04 0.0000e+00 1.0000e+00
      -24  1    1    2    0    0 -6.1514205006e+03 +2.1081471772e+03 +6.5215969964e+03 9.2098783244e+03 7.9829010000e+01 0.0000e+00 1.0000e+00
       24  1    1    2    0    0 +6.6611623476e+03 -2.1518258955e+03 -7.0197368535e+03 9.9138547835e+03 7.9829010000e+01 0.0000e+00 1.0000e+00
       22  1    1    2    0    0 -1.6641442166e+02 -1.5302436353e+02 -1.7216195928e+01 2.2673026479e+02 0.0000000000e+00 0.0000e+00 -1.0000e+00
       22  1    1    2    0    0 -3.4332742534e+02 +1.9670308186e+02 +5.1535605309e+02 6.4973662730e+02 0.0000000000e+00 0.0000e+00 -1.0000e+00
</event>
<event>
 6      1 +1.4834189e-01 1.06429600e+04 7.81653100e-03 6.90130400e-02
  1000022 -1    0    0    0    0 +0.0000000000e+00 +0.0000000000e+00 +4.4721471353e+01 1.0000100000e+04 1.0000000000e+04 0.0000e+00 -1.0000e+00
  1000022 -1    0    0    0    0 -0.0000000000e+00 -0.0000000000e+00 -4.4721471353e+01 1.0000100000e+04 1.0000000000e+04 0.0000e+00 -1.0000e+00
      -24  1    1    2    0    0 -7.5853069894e+02 -8.1193925621e+03 +4.3297424499e+03 9.2332522305e+03 7.9829010000e+01 0.0000e+00 1.0000e+00
       24  1    1    2    0    0 +2.2249250097e+03 +7.8547434693e+03 -3.4532655339e+03 8.8644628594e+03 7.9829010000e+01 0.0000e+00 1.0000e+00
       22  1    1    2    0    0 -1.4626896707e+03 +3.7008155889e+02 -9.4161384810e+02 1.7784988254e+03 0.0000000000e+00 0.0000e+00 1.0000e+00
       22  1    1    2    0    0 -3.7046400254e+00 -1.0543246607e+02 +6.5136932132e+01 1.2398608465e+02 0.0000000000e+00 0.0000e+00 1.0000e+00
</event>
<event>
 6      1 +1.4834189e-01 1.00315800e+04 7.81653100e-03 6.93682200e-02
  1000022 -1    0    0    0    0 +0.0000000000e+00 +0.0000000000e+00 +4.4721471353e+01 1.0000100000e+04 1.0000000000e+04 0.0000e+00 -1.0000e+00
  1000022 -1    0    0    0    0 -0.0000000000e+00 -0.0000000000e+00 -4.4721471353e+01 1.0000100000e+04 1.0000000000e+04 0.0000e+00 -1.0000e+00
      -24  1    1    2    0    0 -1.6870145789e+03 -4.5442851023e+03 -3.9616577115e+03 6.2608026461e+03 7.9829010000e+01 0.0000e+00 1.0000e+00
       24  1    1    2    0    0 +2.8523422212e+03 +7.2459411183e+03 +6.2231379405e+03 9.9686176240e+03 7.9829010000e+01 0.0000e+00 1.0000e+00
       22  1    1    2    0    0 -1.2371236527e+03 -2.6399270001e+03 -2.1388497977e+03 3.6158495482e+03 0.0000000000e+00 0.0000e+00 1.0000e+00
       22  1    1    2    0    0 +7.1796010362e+01 -6.1729015923e+01 -1.2263043130e+02 1.5493018166e+02 0.0000000000e+00 0.0000e+00 -1.0000e+00
</event>
<event>
 6      1 +1.4834189e-01 1.03312200e+04 7.81653100e-03 6.91910600e-02
  1000022 -1    0    0    0    0 +0.0000000000e+00 +0.0000000000e+00 +4.4721471353e+01 1.0000100000e+04 1.0000000000e+04 0.0000e+00 1.0000e+00
  1000022 -1    0    0    0    0 -0.0000000000e+00 -0.0000000000e+00 -4.4721471353e+01 1.0000100000e+04 1.0000000000e+04 0.0000e+00 1.0000e+00
      -24  1    1    2    0    0 +8.3164128749e+03 +4.1972035058e+02 -1.7948325793e+03 8.5186081572e+03 7.9829010000e+01 0.0000e+00 1.0000e+00
       24  1    1    2    0    0 -8.4364450421e+03 +1.2278020330e+03 +4.7939659062e+02 8.5391625200e+03 7.9829010000e+01 0.0000e+00 1.0000e+00
       22  1    1    2    0    0 +7.5453943107e+02 -1.6032961574e+03 +3.8165990398e+02 1.8126093357e+03 0.0000000000e+00 0.0000e+00 1.0000e+00
       22  1    1    2    0    0 -6.3450726382e+02 -4.4226226089e+01 +9.3377608466e+02 1.1298199871e+03 0.0000000000e+00 0.0000e+00 1.0000e+00
</event>
<event>
 6      1 +1.4834189e-01 1.01450700e+04 7.81653100e-03 6.93004000e-02
  1000022 -1    0    0    0    0 +0.0000000000e+00 +0.0000000000e+00 +4.4721471353e+01 1.0000100000e+04 1.0000000000e+04 0.0000e+00 -1.0000e+00
  1000022 -1    0    0    0    0 -0.0000000000e+00 -0.0000000000e+00 -4.4721471353e+01 1.0000100000e+04 1.0000000000e+04 0.0000e+00 -1.0000e+00
      -24  1    1    2    0    0 +6.7523293946e+03 -8.1930638530e+02 +7.0886936731e+03 9.8245186075e+03 7.9829010000e+01 0.0000e+00 -1.0000e+00
       24  1    1    2    0    0 +6.9082040812e+01 +1.7234429203e+02 -7.6199646103e+02 7.8834393562e+02 7.9829010000e+01 0.0000e+00 -1.0000e+00
       22  1    1    2    0    0 +2.1953996462e+01 -3.6807387719e+00 +2.1009347391e+01 3.0609124071e+01 0.0000000000e+00 0.0000e+00 -1.0000e+00
       22  1    1    2    0    0 -6.8433654319e+03 +6.5064283204e+02 -6.3477065595e+03 9.3567283328e+03 0.0000000000e+00 0.0000e+00 -1.0000e+00
</event>
<event>
 6      1 +1.4834189e-01 1.01890100e+04 7.81653100e-03 6.92743800e-02
  1000022 -1    0    0    0    0 +0.0000000000e+00 +0.0000000000e+00 +4.4721471353e+01 1.0000100000e+04 1.0000000000e+04 0.0000e+00 -1.0000e+00
  1000022 -1    0    0    0    0 -0.0000000000e+00 -0.0000000000e+00 -4.4721471353e+01 1.0000100000e+04 1.0000000000e+04 0.0000e+00 -1.0000e+00
      -24  1    1    2    0    0 +1.7352042110e+03 +2.9570051392e+03 +9.1546719475e+03 9.7759502957e+03 7.9829010000e+01 0.0000e+00 -1.0000e+00
       24  1    1    2    0    0 +3.0658766760e+02 +2.6688094340e+02 -2.0287794349e+03 2.0706376076e+03 7.9829010000e+01 0.0000e+00 -1.0000e+00
       22  1    1    2    0    0 -2.0490842357e+03 -3.2346712601e+03 -7.1586395081e+03 8.1183720026e+03 0.0000000000e+00 0.0000e+00 -1.0000e+00
       22  1    1    2    0    0 +7.2923570309e+00 +1.0785177474e+01 +3.2746995400e+01 3.5240094096e+01 0.0000000000e+00 0.0000e+00 1.0000e+00
</event>
<event>
 6      1 +1.4834189e-01 1.00324800e+04 7.81653100e-03 6.93676800e-02
  1000022 -1    0    0    0    0 +0.0000000000e+00 +0.0000000000e+00 +4.4721471353e+01 1.0000100000e+04 1.0000000000e+04 0.0000e+00 -1.0000e+00
  1000022 -1    0    0    0    0 -0.0000000000e+00 -0.0000000000e+00 -4.4721471353e+01 1.0000100000e+04 1.0000000000e+04 0.0000e+00 -1.0000e+00
      -24  1    1    2    0    0 +1.5393145423e+02 -3.3159979495e+02 -6.5802984053e+01 3.7994212738e+02 7.9829010000e+01 0.0000e+00 1.0000e+00
       24  1    1    2    0    0 -7.3025432960e+03 +4.9621564049e+03 -3.8263220286e+03 9.6227463707e+03 7.9829010000e+01 0.0000e+00 1.0000e+00
       22  1    1    2    0    0 +7.3398012999e+03 -4.9176761000e+03 +3.8878259798e+03 9.6525339779e+03 0.0000000000e+00 0.0000e+00 1.0000e+00
       22  1    1    2    0    0 -1.9118945807e+02 +2.8711948998e+02 +4.2990328003e+00 3.4497752403e+02 0.0000000000e+00 0.0000e+00 -1.0000e+00
</event>
<event>
 6      1 +1.4834189e-01 9.44127900e+03 7.81653100e-03 6.97361900e-02
  1000022 -1    0    0    0    0 +0.0000000000e+00 +0.0000000000e+00 +4.4721471353e+01 1.0000100000e+04 1.0000000000e+04 0.0000e+00 -1.0000e+00
  1000022 -1    0    0    0    0 -0.0000000000e+00 -0.0000000000e+00 -4.4721471353e+01 1.0000100000e+04 1.0000000000e+04 0.0000e+00 -1.0000e+00
      -24  1    1    2    0    0 +9.6970308123e+02 -2.9390647056e+02 -4.1492999404e+02 1.0978363494e+03 7.9829010000e+01 0.0000e+00 -1.0000e+00
       24  1    1    2    0    0 -6.9465949380e+02 -9.1982318981e+03 -9.6097308229e+02 9.2746894179e+03 7.9829010000e+01 0.0000e+00 1.0000e+00
       22  1    1    2    0    0 -2.5643243907e+02 +9.5008398664e+03 +1.3859226302e+03 9.6048163595e+03 0.0000000000e+00 0.0000e+00 1.0000e+00
       22  1    1    2    0    0 -1.8611148360e+01 -8.7014977654e+00 -1.0019553873e+01 2.2857873183e+01 0.0000000000e+00 0.0000e+00 -1.0000e+00
</event>
<event>
 6      1 +1.4834189e-01 1.02834200e+04 7.81653100e-03 6.92189100e-02
  1000022 -1    0    0    0    0 +0.0000000000e+00 +0.0000000000e+00 +4.4721471353e+01 1.0000100000e+04 1.0000000000e+04 0.0000e+00 -1.0000e+00
  1000022 -1    0    0    0    0 -0.0000000000e+00 -0.0000000000e+00 -4.4721471353e+01 1.0000100000e+04 1.0000000000e+04 0.0000e+00 -1.0000e+00
      -24  1    1    2    0    0 -3.3506608464e+03 +3.0927786771e+03 +4.9280231447e+01 4.5608123471e+03 7.9829010000e+01 0.0000e+00 1.0000e+00
       24  1    1    2    0    0 +9.3032630614e+02 -1.2133365791e+03 -5.0962816704e+02 1.6136251825e+03 7.9829010000e+01 0.0000e+00 0.0000e+00
       22  1    1    2    0    0 -2.3068480194e+03 +4.0453746040e+03 +3.3259036658e+03 5.7226076806e+03 0.0000000000e+00 0.0000e+00 -1.0000e+00
       22  1    1    2    0    0 +4.7271825597e+03 -5.9248167020e+03 -2.8655557302e+03 8.1031547898e+03 0.0000000000e+00 0.0000e+00 -1.0000e+00
</event>
<event>
 6      1 +1.4834189e-01 1.00168800e+04 7.81653100e-03 6.93770700e-02
  1000022 -1    0    0    0    0 +0.0000000000e+00 +0.0000000000e+00 +4.4721471353e+01 1.0000100000e+04 1.0000000000e+04 0.0000e+00 -1.0000e+00
  1000022 -1    0    0    0    0 -0.0000000000e+00 -0.0000000000e+00 -4.4721471353e+01 1.0000100000e+04 1.0000000000e+04 0.0000e+00 -1.0000e+00
      -24  1    1    2    0    0 -6.6239824796e+03 -5.0384393751e+02 -7.4307445684e+03 9.9676145650e+03 7.9829010000e+01 0.0000e+00 -1.0000e+00
       24  1    1    2    0    0 +6.3787139559e+03 +4.0561900921e+02 +7.1982604221e+03 9.6267255226e+03 7.9829010000e+01 0.0000e+00 -1.0000e+00
       22  1    1    2    0    0 +2.3891913158e+02 +5.6896706078e+01 +2.5853545609e+02 3.5659524486e+02 0.0000000000e+00 0.0000e+00 1.0000e+00
       22  1    1    2    0    0 +6.3493921161e+00 +4.1328222222e+01 -2.6051309763e+01 4.9264667589e+01 0.0000000000e+00 0.0000e+00 1.0000e+00
</event>
<event>
 6      1 +1.4834189e-01 1.14947200e+04 7.81653100e-03 6.85563100e-02
  1000022 -1    0    0    0    0 +0.0000000000e+00 +0.0000000000e+00 +4.4721471353e+01 1.0000100000e+04 1.0000000000e+04 0.0000e+00 -1.0000e+00
  1000022 -1    0    0    0    0 -0.0000000000e+00 -0.0000000000e+00 -4.4721471353e+01 1.0000100000e+04 1.0000000000e+04 0.0000e+00 -1.0000e+00
      -24  1    1    2    0    0 +3.8325638387e+03 +2.9044612486e+03 +7.0151561146e+03 8.5054822735e+03 7.9829010000e+01 0.0000e+00 -1.0000e+00
       24  1    1    2    0    0 -4.1135260323e+03 -5.1069800221e+03 -3.9003406793e+03 7.6302930121e+03 7.9829010000e+01 0.0000e+00 -1.0000e+00
       22  1    1    2    0    0 +2.7784444003e+02 +2.2300621718e+03 -3.1088751548e+03 3.8360760617e+03 0.0000000000e+00 0.0000e+00 -1.0000e+00
       22  1    1    2    0    0 +3.1177535992e+00 -2.7543398222e+01 -5.9402804845e+00 2.8348652619e+01 0.0000000000e+00 0.0000e+00 -1.0000e+00
</event>
<event>
 6      1 +1.4834189e-01 1.00474900e+04 7.81653100e-03 6.93586600e-02
  1000022 -1    0    0    0    0 +0.0000000000e+00 +0.0000000000e+00 +4.4721471353e+01 1.0000100000e+04 1.0000000000e+04 0.0000e+00 -1.0000e+00
  1000022 -1    0    0    0    0 -0.0000000000e+00 -0.0000000000e+00 -4.4721471353e+01 1.0000100000e+04 1.0000000000e+04 0.0000e+00 -1.0000e+00
      -24  1    1    2    0    0 +9.1367206120e+03 +3.7675433761e+03 -1.1730556674e+03 9.9527121380e+03 7.9829010000e+01 0.0000e+00 1.0000e+00
       24  1    1    2    0    0 -8.4243855346e+03 -3.8195289753e+03 +1.1734096329e+03 9.3242874294e+03 7.9829010000e+01 0.0000e+00 1.0000e+00
       22  1    1    2    0    0 -6.4797334727e+02 +2.9861583172e+01 +2.8480692157e+01 6.4928600997e+02 0.0000000000e+00 0.0000e+00 -1.0000e+00
       22  1    1    2    0    0 -6.4361730144e+01 +2.2124015982e+01 -2.8834657588e+01 7.3914422601e+01 0.0000000000e+00 0.0000e+00 -1.0000e+00
</event>
<event>
 6      1 +1.4834189e-01 1.00026900e+04 7.81653100e-03 6.93856300e-02
  1000022 -1    0    0    0    0 +0.0000000000e+00 +0.0000000000e+00 +4.4721471353e+01 1.0000100000e+04 1.0000000000e+04 0.0000e+00 1.0000e+00
  1000022 -1    0    0    0    0 -0.0000000000e+00 -0.0000000000e+00 -4.4721471353e+01 1.0000100000e+04 1.0000000000e+04 0.0000e+00 1.0000e+00
      -24  1    1    2    0    0 +7.5857650292e+02 -8.9182243789e+03 +3.7214286999e+03 9.6935838895e+03 7.9829010000e+01 0.0000e+00 1.0000e+00
       24  1    1    2    0    0 -8.3302537693e+02 +9.1062080416e+03 -3.8111158476e+03 9.9069638563e+03 7.9829010000e+01 0.0000e+00 1.0000e+00
       22  1    1    2    0    0 -5.4667301250e+00 +8.3147795249e+01 -3.5415977845e+01 9.0541330229e+01 0.0000000000e+00 0.0000e+00 1.0000e+00
       22  1    1    2    0    0 +7.9915604133e+01 -2.7113145796e+02 +1.2510312553e+02 3.0911092394e+02 0.0000000000e+00 0.0000e+00 1.0000e+00
</event>
<event>
 6      1 +1.4834189e-01 1.00011100e+04 7.81653100e-03 6.93865900e-02
  1000022 -1    0    0    0    0 +0.0000000000e+00 +0.0000000000e+00 +4.4721471353e+01 1.0000100000e+04 1.0000000000e+04 0.0000e+00 1.0000e+00
  1000022 -1    0    0    0    0 -0.0000000000e+00 -0.0000000000e+00 -4.4721471353e+01 1.0000100000e+04 1.0000000000e+04 0.0000e+00 1.0000e+00
      -24  1    1    2    0    0 +3.9724886220e+03 +7.7631783328e+03 -2.9105407415e+03 9.1937600446e+03 7.9829010000e+01 0.0000e+00 1.0000e+00
       24  1    1    2    0    0 -4.3042923167e+03 -8.4444359323e+03 +3.1025544503e+03 9.9733468480e+03 7.9829010000e+01 0.0000e+00 1.0000e+00
       22  1    1    2    0    0 +3.4046233930e+02 +7.0460280857e+02 -1.9856563135e+02 8.0734629018e+02 0.0000000000e+00 0.0000e+00 1.0000e+00
       22  1    1    2    0    0 -8.6586445790e+00 -2.3345209006e+01 +6.5519225583e+00 2.5746817254e+01 0.0000000000e+00 0.0000e+00 1.0000e+00
</event>
<event>
 6      1 +1.4834189e-01 1.00065500e+04 7.81653100e-03 6.93833000e-02
  1000022 -1    0    0    0    0 +0.0000000000e+00 +0.0000000000e+00 +4.4721471353e+01 1.0000100000e+04 1.0000000000e+04 0.0000e+00 1.0000e+00
  1000022 -1    0    0    0    0 -0.0000000000e+00 -0.0000000000e+00 -4.4721471353e+01 1.0000100000e+04 1.0000000000e+04 0.0000e+00 1.0000e+00
      -24  1    1    2    0    0 -1.9280497915e+03 -9.8001113766e+03 +3.2728180319e+02 9.9936502362e+03 7.9829010000e+01 0.0000e+00 1.0000e+00
       24  1    1    2    0    0 +8.6827421253e+02 +5.3659442441e+03 -2.7363862682e+02 5.4432075569e+03 7.9829010000e+01 0.0000e+00 1.0000e+00
       22  1    1    2    0    0 +1.0644918970e+03 +4.4202532180e+03 -6.0734655799e+01 4.5470287231e+03 0.0000000000e+00 0.0000e+00 1.0000e+00
       22  1    1    2    0    0 -4.7163181019e+00 +1.3913914582e+01 +7.0914794351e+00 1.6313483871e+01 0.0000000000e+00 0.0000e+00 1.0000e+00
</event>
<event>
 6      1 +1.4834189e-01 1.02782200e+04 7.81653100e-03 6.92219500e-02
  1000022 -1    0    0    0    0 +0.0000000000e+00 +0.0000000000e+00 +4.4721471353e+01 1.0000100000e+04 1.0000000000e+04 0.0000e+00 1.0000e+00
  1000022 -1    0    0    0    0 -0.0000000000e+00 -0.0000000000e+00 -4.4721471353e+01 1.0000100000e+04 1.0000000000e+04 0.0000e+00 1.0000e+00
      -24  1    1    2    0    0 -3.6278608707e+03 -5.6896363091e+03 +6.9983760081e+03 9.7219841210e+03 7.9829010000e+01 0.0000e+00 -1.0000e+00
       24  1    1    2    0    0 +3.9777449833e+03 +4.9038783853e+03 -6.9636596451e+03 9.4005003427e+03 7.9829010000e+01 0.0000e+00 -1.0000e+00
       22  1    1    2    0    0 -3.3223393272e+02 +7.7011282667e+02 -3.6738515062e+00 8.3872918695e+02 0.0000000000e+00 0.0000e+00 -1.0000e+00
       22  1    1    2    0    0 -1.7650179891e+01 +1.5645097187e+01 -3.1042511530e+01 3.8986349384e+01 0.0000000000e+00 0.0000e+00 1.0000e+00
</event>
<event>
 6      1 +1.4834189e-01 1.00230700e+04 7.81653100e-03 6.93733400e-02
  1000022 -1    0    0    0    0 +0.0000000000e+00 +0.0000000000e+00 +4.4721471353e+01 1.0000100000e+04 1.0000000000e+04 0.0000e+00 1.0000e+00
  1000022 -1    0    0    0    0 -0.0000000000e+00 -0.0000000000e+00 -4.4721471353e+01 1.0000100000e+04 1.0000000000e+04 0.0000e+00 1.0000e+00
      -24  1    1    2    0    0 -9.8479320321e+03 -1.3787327186e+03 +5.4245193882e+02 9.9590810818e+03 7.9829010000e+01 0.0000e+00 -1.0000e+00
       24  1    1    2    0    0 +9.6958194982e+03 +1.3897231631e+03 -4.7619421557e+02 9.8068027314e+03 7.9829010000e+01 0.0000e+00 -1.0000e+00
       22  1    1    2    0    0 +1.6775523565e+02 +2.4977574073e+01 -1.5702221945e+01 1.7032985079e+02 0.0000000000e+00 0.0000e+00 1.0000e+00
       22  1    1    2    0    0 -1.5642701786e+01 -3.5968018569e+01 -5.0555501302e+01 6.3986335970e+01 0.0000000000e+00 0.0000e+00 -1.0000e+00
</event>
<event>
 6      1 +1.4834189e-01 1.04326000e+04 7.81653100e-03 6.91324800e-02
  1000022 -1    0    0    0    0 +0.0000000000e+00 +0.0000000000e+00 +4.4721471353e+01 1.0000100000e+04 1.0000000000e+04 0.0000e+00 -1.0000e+00
  1000022 -1    0    0    0    0 -0.0000000000e+00 -0.0000000000e+00 -4.4721471353e+01 1.0000100000e+04 1.0000000000e+04 0.0000e+00 -1.0000e+00
      -24  1    1    2    0    0 +3.1511112346e+03 +5.8217078424e+03 -5.7078775509e+03 8.7411682870e+03 7.9829010000e+01 0.0000e+00 -1.0000e+00
       24  1    1    2    0    0 -1.9514961083e+03 -6.6605080161e+03 +6.5532388910e+03 9.5457852860e+03 7.9829010000e+01 0.0000e+00 -1.0000e+00
       22  1    1    2    0    0 -1.1898579617e+03 +8.5802364359e+02 -8.4199847075e+02 1.6914277894e+03 0.0000000000e+00 0.0000e+00 -1.0000e+00
       22  1    1    2    0    0 -9.7571645608e+00 -1.9223469870e+01 -3.3628692733e+00 2.1818637535e+01 0.0000000000e+00 0.0000e+00 -1.0000e+00
</event>
<event>
 6      1 +1.4834189e-01 1.01995000e+04 7.81653100e-03 6.92681800e-02
  1000022 -1    0    0    0    0 +0.0000000000e+00 +0.0000000000e+00 +4.4721471353e+01 1.0000100000e+04 1.0000000000e+04 0.0000e+00 -1.0000e+00
  1000022 -1    0    0    0    0 -0.0000000000e+00 -0.0000000000e+00 -4.4721471353e+01 1.0000100000e+04 1.0000000000e+04 0.0000e+00 -1.0000e+00
      -24  1    1    2    0    0 +4.2430644654e+03 +5.2342149397e+03 -6.4008845918e+03 9.2939925931e+03 7.9829010000e+01 0.0000e+00 -1.0000e+00
       24  1    1    2    0    0 -4.8714946281e+03 -4.8353088696e+03 +6.7268477306e+03 9.6108545321e+03 7.9829010000e+01 0.0000e+00 -1.0000e+00
       22  1    1    2    0    0 +7.2666445902e+02 -2.9621652477e+02 -4.5184215059e+02 9.0550913557e+02 0.0000000000e+00 0.0000e+00 -1.0000e+00
       22  1    1    2    0    0 -9.8234296303e+01 -1.0268954539e+02 +1.2587901181e+02 1.8984373921e+02 0.0000000000e+00 0.0000e+00 -1.0000e+00
</event>
<event>
 6      1 +1.4834189e-01 9.82246000e+03 7.81653100e-03 6.94955900e-02
  1000022 -1    0    0    0    0 +0.0000000000e+00 +0.0000000000e+00 +4.4721471353e+01 1.0000100000e+04 1.0000000000e+04 0.0000e+00 -1.0000e+00
  1000022 -1    0    0    0    0 -0.0000000000e+00 -0.0000000000e+00 -4.4721471353e+01 1.0000100000e+04 1.0000000000e+04 0.0000e+00 -1.0000e+00
      -24  1    1    2    0    0 -1.8993977896e+02 -2.8457347508e+02 -4.1768370769e+01 3.5380284056e+02 7.9829010000e+01 0.0000e+00 1.0000e+00
       24  1    1    2    0    0 -6.4004045449e+03 +5.4685321480e+03 -4.3235093527e+03 9.4640967867e+03 7.9829010000e+01 0.0000e+00 1.0000e+00
       22  1    1    2    0    0 +6.8214898675e+03 -5.3914063591e+03 +4.5576830383e+03 9.8169476529e+03 0.0000000000e+00 0.0000e+00 1.0000e+00
       22  1    1    2    0    0 -2.3114554356e+02 +2.0744768615e+02 -1.9240531481e+02 3.6535271994e+02 0.0000000000e+00 0.0000e+00 1.0000e+00
</event>
<event>
 6      1 +1.4834189e-01 1.00073800e+04 7.81653100e-03 6.93828000e-02
  1000022 -1    0    0    0    0 +0.0000000000e+00 +0.0000000000e+00 +4.4721471353e+01 1.0000100000e+04 1.0000000000e+04 0.0000e+00 -1.0000e+00
  1000022 -1    0    0    0    0 -0.0000000000e+00 -0.0000000000e+00 -4.4721471353e+01 1.0000100000e+04 1.0000000000e+04 0.0000e+00 -1.0000e+00
      -24  1    1    2    0    0 +1.9536487810e+03 -8.6578592095e+03 -4.5483103354e+03 9.9734030917e+03 7.9829010000e+01 0.0000e+00 -1.0000e+00
       24  1    1    2    0    0 -2.7063765991e+02 +2.3861210926e+03 +1.2536632836e+03 2.7101407548e+03 7.9829010000e+01 0.0000e+00 -1.0000e+00
       22  1    1    2    0    0 +7.3302150590e+00 -1.7728053467e+01 +2.9719055454e+00 1.9412577241e+01 0.0000000000e+00 0.0000e+00 -1.0000e+00
       22  1    1    2    0    0 -1.6903413362e+03 +6.2894661704e+03 +3.2916751463e+03 7.2972435762e+03 0.0000000000e+00 0.0000e+00 -1.0000e+00
</event>
<event>
 6      1 +1.4834189e-01 1.00012600e+04 7.81653100e-03 6.93864900e-02
  1000022 -1    0    0    0    0 +0.0000000000e+00 +0.0000000000e+00 +4.4721471353e+01 1.0000100000e+04 1.0000000000e+04 0.0000e+00 -1.0000e+00
  1000022 -1    0    0    0    0 -0.0000000000e+00 -0.0000000000e+00 -4.4721471353e+01 1.0000100000e+04 1.0000000000e+04 0.0000e+00 -1.0000e+00
      -24  1    1    2    0    0 -5.3548529857e+02 +9.4458083931e+03 +3.1495559834e+03 9.9717659553e+03 7.9829010000e+01 0.0000e+00 -1.0000e+00
       24  1    1    2    0    0 +5.1918212387e+02 -9.4162949012e+03 -3.1418936346e+03 9.9405245348e+03 7.9829010000e+01 0.0000e+00 -1.0000e+00
       22  1    1    2    0    0 +1.0293849414e+01 +2.7179202688e+01 +5.0509275077e+00 2.9498885796e+01 0.0000000000e+00 0.0000e+00 1.0000e+00
       22  1    1    2    0    0 +6.0093252785e+00 -5.6692694623e+01 -1.2713276272e+01 5.8410624098e+01 0.0000000000e+00 0.0000e+00 -1.0000e+00
</event>
<event>
 6      1 +1.4834189e-01 1.01593400e+04 7.81653100e-03 6.92919300e-02
  1000022 -1    0    0    0    0 +0.0000000000e+00 +0.0000000000e+00 +4.4721471353e+01 1.0000100000e+04 1.0000000000e+04 0.0000e+00 -1.0000e+00
  1000022 -1    0    0    0    0 -0.0000000000e+00 -0.0000000000e+00 -4.4721471353e+01 1.0000100000e+04 1.0000000000e+04 0.0000e+00 -1.0000e+00
      -24  1    1    2    0    0 -1.6779221467e+03 -4.1688091257e+02 +4.4085392916e+03 4.7361169519e+03 7.9829010000e+01 0.0000e+00 1.0000e+00
       24  1    1    2    0    0 -1.6147471167e+02 +5.1675157345e+02 -2.2627452457e+03 2.3279808824e+03 7.9829010000e+01 0.0000e+00 1.0000e+00
       22  1    1    2    0    0 -1.9073329776e+03 +6.5265019494e+02 +4.6898369658e+03 5.1047470192e+03 0.0000000000e+00 0.0000e+00 1.0000e+00
       22  1    1    2    0    0 +3.7467298360e+03 -7.5252085582e+02 -6.8356310117e+03 7.8313551465e+03 0.0000000000e+00 0.0000e+00 1.0000e+00
</event>
<event>
 6      1 +1.4834189e-01 1.00052900e+04 7.81653100e-03 6.93840600e-02
  1000022 -1    0    0    0    0 +0.0000000000e+00 +0.0000000000e+00 +4.4721471353e+01 1.0000100000e+04 1.0000000000e+04 0.0000e+00 1.0000e+00
  1000022 -1    0    0    0    0 -0.0000000000e+00 -0.0000000000e+00 -4.4721471353e+01 1.0000100000e+04 1.0000000000e+04 0.0000e+00 1.0000e+00
      -24  1    1    2    0    0 -2.7018194012e+03 +8.1746464507e+03 +4.7901333654e+03 9.8527368279e+03 7.9829010000e+01 0.0000e+00 -1.0000e+00
       24  1    1    2    0    0 +2.7303281057e+03 -8.2997064819e+03 -4.8443073861e+03 9.9906709471e+03 7.9829010000e+01 0.0000e+00 -1.0000e+00
       22  1    1    2    0    0 +1.3303312335e+01 -1.9068945798e+00 +5.7411270583e+00 1.4614202199e+01 0.0000000000e+00 0.0000e+00 -1.0000e+00
       22  1    1    2    0    0 -4.1812016792e+01 +1.2696692580e+02 +4.8432893700e+01 1.4217802287e+02 0.0000000000e+00 0.0000e+00 1.0000e+00
</event>
<event>
 6      1 +1.4834189e-01 1.01644200e+04 7.81653100e-03 6.92889200e-02
  1000022 -1    0    0    0    0 +0.0000000000e+00 +0.0000000000e+00 +4.4721471353e+01 1.0000100000e+04 1.0000000000e+04 0.0000e+00 1.0000e+00
  1000022 -1    0    0    0    0 -0.0000000000e+00 -0.0000000000e+00 -4.4721471353e+01 1.0000100000e+04 1.0000000000e+04 0.0000e+00 1.0000e+00
      -24  1    1    2    0    0 +1.0122421726e+02 -7.8079975518e+03 -2.2034834550e+03 8.1139869435e+03 7.9829010000e+01 0.0000e+00 -1.0000e+00
       24  1    1    2    0    0 +4.1305869398e+01 +1.2618768601e+03 +5.0478705404e+02 1.3620653529e+03 7.9829010000e+01 0.0000e+00 0.0000e+00
       22  1    1    2    0    0 +2.1894093951e+02 +7.8150179543e+03 +3.2682502966e+03 8.4737182372e+03 0.0000000000e+00 0.0000e+00 -1.0000e+00
       22  1    1    2    0    0 -3.6147102617e+02 -1.2688972626e+03 -1.5695538956e+03 2.0504294665e+03 0.0000000000e+00 0.0000e+00 -1.0000e+00
</event>
<event>
 6      1 +1.4834189e-01 1.00006000e+04 7.81653100e-03 6.93869000e-02
  1000022 -1    0    0    0    0 +0.0000000000e+00 +0.0000000000e+00 +4.4721471353e+01 1.0000100000e+04 1.0000000000e+04 0.0000e+00 -1.0000e+00
  1000022 -1    0    0    0    0 -0.0000000000e+00 -0.0000000000e+00 -4.4721471353e+01 1.0000100000e+04 1.0000000000e+04 0.0000e+00 -1.0000e+00
      -24  1    1    2    0    0 -4.7482005728e+03 -5.8747765705e+03 -4.9392045166e+03 9.0255483136e+03 7.9829010000e+01 0.0000e+00 1.0000e+00
       24  1    1    2    0    0 +5.1526742568e+03 +6.2931196087e+03 +5.2972171226e+03 9.7067135695e+03 7.9829010000e+01 0.0000e+00 1.0000e+00
       22  1    1    2    0    0 -5.5501792894e+02 -6.1675826240e+02 -5.1213328568e+02 9.7504674656e+02 0.0000000000e+00 0.0000e+00 1.0000e+00
       22  1    1    2    0    0 +1.5054424494e+02 +1.9841522423e+02 +1.5412067970e+02 2.9289137031e+02 0.0000000000e+00 0.0000e+00 -1.0000e+00
</event>
<event>
 6      1 +1.4834189e-01 1.00087600e+04 7.81653100e-03 6.93819700e-02
  1000022 -1    0    0    0    0 +0.0000000000e+00 +0.0000000000e+00 +4.4721471353e+01 1.0000100000e+04 1.0000000000e+04 0.0000e+00 -1.0000e+00
  1000022 -1    0    0    0    0 -0.0000000000e+00 -0.0000000000e+00 -4.4721471353e+01 1.0000100000e+04 1.0000000000e+04 0.0000e+00 -1.0000e+00
      -24  1    1    2    0    0 -8.7292711490e+02 -2.2231625951e+03 +9.7014443306e+03 9.9914387574e+03 7.9829010000e+01 0.0000e+00 -1.0000e+00
       24  1    1    2    0    0 +1.6426086298e+02 +9.8946887820e+02 -3.9481684160e+03 4.0743633618e+03 7.9829010000e+01 0.0000e+00 -1.0000e+00
       22  1    1    2    0    0 +6.6299404620e+01 +3.8140256544e+02 -1.6063241365e+03 1.6523137593e+03 0.0000000000e+00 0.0000e+00 -1.0000e+00
       22  1    1    2    0    0 +6.4236684730e+02 +8.5229115145e+02 -4.1469517781e+03 4.2820841215e+03 0.0000000000e+00 0.0000e+00 -1.0000e+00
</event>
<event>
 6      1 +1.4834189e-01 1.00585300e+04 7.81653100e-03 6.93520300e-02
  1000022 -1    0    0    0    0 +0.0000000000e+00 +0.0000000000e+00 +4.4721471353e+01 1.0000100000e+04 1.0000000000e+04 0.0000e+00 -1.0000e+00
  1000022 -1    0    0    0    0 -0.0000000000e+00 -0.0000000000e+00 -4.4721471353e+01 1.0000100000e+04 1.0000000000e+04 0.0000e+00 -1.0000e+00
      -24  1    1    2    0    0 -1.1510036980e+03 -7.6595205525e+03 -2.8625820127e+03 8.2579545322e+03 7.9829010000e+01 0.0000e+00 1.0000e+00
       24  1    1    2    0    0 +1.8032089255e+03 +9.3269281881e+03 +2.9303943795e+03 9.9416666483e+03 7.9829010000e+01 0.0000e+00 1.0000e+00
       22  1    1    2    0    0 -4.9190323760e+01 -7.8978052603e+01 -4.0088853810e+01 1.0131306404e+02 0.0000000000e+00 0.0000e+00 -1.0000e+00
       22  1    1    2    0    0 -6.0301490374e+02 -1.5884295830e+03 -2.7723513011e+01 1.6992657554e+03 0.0000000000e+00 0.0000e+00 1.0000e+00
</event>
<event>
 6      1 +1.4834189e-01 1.00089600e+04 7.81653100e-03 6.93818400e-02
  1000022 -1    0    0    0    0 +0.0000000000e+00 +0.0000000000e+00 +4.4721471353e+01 1.0000100000e+04 1.0000000000e+04 0.0000e+00 1.0000e+00
  1000022 -1    0    0    0    0 -0.0000000000e+00 -0.0000000000e+00 -4.4721471353e+01 1.0000100000e+04 1.0000000000e+04 0.0000e+00 1.0000e+00
      -24  1    1    2    0    0 -2.5463002955e+03 -3.8519588751e+03 +8.8598646426e+03 9.9912364864e+03 7.9829010000e+01 0.0000e+00 1.0000e+00
       24  1    1    2    0    0 +1.6583122338e+03 +2.4818394791e+03 -5.7753309214e+03 6.5015649337e+03 7.9829010000e+01 0.0000e+00 1.0000e+00
       22  1    1    2    0    0 +1.0057990090e+01 -1.6678952768e+01 -9.3399321609e+00 2.1600577836e+01 0.0000000000e+00 0.0000e+00 1.0000e+00
       22  1    1    2    0    0 +8.7793007163e+02 +1.3867983488e+03 -3.0751937890e+03 3.4857980020e+03 0.0000000000e+00 0.0000e+00 1.0000e+00
</event>
<event>
 6      1 +1.4834189e-01 1.00055900e+04 7.81653100e-03 6.93838800e-02
  1000022 -1    0    0    0    0 +0.0000000000e+00 +0.0000000000e+00 +4.4721471353e+01 1.0000100000e+04 1.0000000000e+04 0.0000e+00 -1.0000e+00
  1000022 -1    0    0    0    0 -0.0000000000e+00 -0.0000000000e+00 -4.4721471353e+01 1.0000100000e+04 1.0000000000e+04 0.0000e+00 -1.0000e+00
      -24  1    1    2    0    0 -1.0788244875e+03 -2.9362750426e+03 +8.4220909300e+03 8.9846291913e+03 7.9829010000e+01 0.0000e+00 -1.0000e+00
       24  1    1    2    0    0 +1.1880339962e+03 +3.0430844949e+03 -8.9432246222e+03 9.5215244227e+03 7.9829010000e+01 0.0000e+00 -1.0000e+00
       22  1    1    2    0    0 -1.3427095499e+02 -3.5512957034e+02 +9.3590038112e+02 1.0099778336e+03 0.0000000000e+00 0.0000e+00 -1.0000e+00
       22  1    1    2    0    0 +2.5061446327e+01 +2.4832011803e+02 -4.1476668897e+02 4.8406855236e+02 0.0000000000e+00 0.0000e+00 -1.0000e+00
</event>
<event>
 6      1 +1.4834189e-01 1.00002800e+04 7.81653100e-03 6.93870900e-02
  1000022 -1    0    0    0    0 +0.0000000000e+00 +0.0000000000e+00 +4.4721471353e+01 1.0000100000e+04 1.0000000000e+04 0.0000e+00 -1.0000e+00
  1000022 -1    0    0    0    0 -0.0000000000e+00 -0.0000000000e+00 -4.4721471353e+01 1.0000100000e+04 1.0000000000e+04 0.0000e+00 -1.0000e+00
      -24  1    1    2    0    0 -4.6093976098e+03 -5.6092244169e+03 -6.8455027816e+03 9.9788389048e+03 7.9829010000e+01 0.0000e+00 -1.0000e+00
       24  1    1    2    0    0 +4.2521862300e+03 +5.2060884517e+03 +6.3432513544e+03 9.2427082133e+03 7.9829010000e+01 0.0000e+00 -1.0000e+00
       22  1    1    2    0    0 +3.6368192593e+02 +4.1855548342e+02 +5.1567104539e+02 7.5721190099e+02 0.0000000000e+00 0.0000e+00 -1.0000e+00
       22  1    1    2    0    0 -6.4705460792e+00 -1.5419518215e+01 -1.3419618165e+01 2.1440980860e+01 0.0000000000e+00 0.0000e+00 -1.0000e+00
</event>
<event>
 6      1 +1.4834189e-01 1.00500800e+04 7.81653100e-03 6.93571000e-02
  1000022 -1    0    0    0    0 +0.0000000000e+00 +0.0000000000e+00 +4.4721471353e+01 1.0000100000e+04 1.0000000000e+04 0.0000e+00 -1.0000e+00
  1000022 -1    0    0    0    0 -0.0000000000e+00 -0.0000000000e+00 -4.4721471353e+01 1.0000100000e+04 1.0000000000e+04 0.0000e+00 -1.0000e+00
      -24  1    1    2    0    0 -1.4095254777e+03 +8.6532970150e+02 +4.7902892902e+01 1.6565702287e+03 7.9829010000e+01 0.0000e+00 -1.0000e+00
       24  1    1    2    0    0 +8.2892352888e+03 -5.5032259332e+03 +3.9477294683e+01 9.9501180129e+03 7.9829010000e+01 0.0000e+00 -1.0000e+00
       22  1    1    2    0    0 -6.0605563404e+03 +4.1468561013e+03 +3.3076456879e+02 7.3509294569e+03 0.0000000000e+00 0.0000e+00 -1.0000e+00
       22  1    1    2    0    0 -8.1915347066e+02 +4.9104013034e+02 -4.1814475637e+02 1.0425823015e+03 0.0000000000e+00 0.0000e+00 1.0000e+00
</event>
<event>
 6      1 +1.4834189e-01 1.00130500e+04 7.81653100e-03 6.93793800e-02
  1000022 -1    0    0    0    0 +0.0000000000e+00 +0.0000000000e+00 +4.4721471353e+01 1.0000100000e+04 1.0000000000e+04 0.0000e+00 1.0000e+00
  1000022 -1    0    0    0    0 -0.0000000000e+00 -0.0000000000e+00 -4.4721471353e+01 1.0000100000e+04 1.0000000000e+04 0.0000e+00 1.0000e+00
      -24  1    1    2    0    0 +8.2043271547e+03 +4.7793407811e+03 -1.7202993868e+03 9.6498126932e+03 7.9829010000e+01 0.0000e+00 -1.0000e+00
       24  1    1    2    0    0 -5.1101218950e+03 -3.3887296538e+03 +1.1907886917e+03 6.2466939118e+03 7.9829010000e+01 0.0000e+00 -1.0000e+00
       22  1    1    2    0    0 -3.4180030392e+03 -1.4744601092e+03 +5.7331165686e+02 3.7663594684e+03 0.0000000000e+00 0.0000e+00 -1.0000e+00
       22  1    1    2    0    0 +3.2379777951e+02 +8.3848981814e+01 -4.3800961778e+01 3.3733392658e+02 0.0000000000e+00 0.0000e+00 1.0000e+00
</event>
<event>
 6      1 +1.4834189e-01 7.69690900e+03 7.81653100e-03 7.10052400e-02
  1000022 -1    0    0    0    0 +0.0000000000e+00 +0.0000000000e+00 +4.4721471353e+01 1.0000100000e+04 1.0000000000e+04 0.0000e+00 -1.0000e+00
  1000022 -1    0    0    0    0 -0.0000000000e+00 -0.0000000000e+00 -4.4721471353e+01 1.0000100000e+04 1.0000000000e+04 0.0000e+00 -1.0000e+00
      -24  1    1    2    0    0 -2.6740900235e+03 +1.7297819889e+03 -2.4406867257e+03 4.0132564766e+03 7.9829010000e+01 0.0000e+00 1.0000e+00
       24  1    1    2    0    0 -4.6073176111e+03 -5.3177973556e+03 +3.2386345245e+03 7.7460616147e+03 7.9829010000e+01 0.0000e+00 1.0000e+00
       22  1    1    2    0    0 -3.8897457814e+01 +2.1587554447e+01 -4.5001030162e+01 6.3278175124e+01 0.0000000000e+00 0.0000e+00 1.0000e+00
       22  1    1    2    0    0 +7.3203050924e+03 +3.5664278123e+03 -7.5294676864e+02 8.1776037336e+03 0.0000000000e+00 0.0000e+00 1.0000e+00
</event>
<event>
 6      1 +1.4834189e-01 1.00014000e+04 7.81653100e-03 6.93864100e-02
  1000022 -1    0    0    0    0 +0.0000000000e+00 +0.0000000000e+00 +4.4721471353e+01 1.0000100000e+04 1.0000000000e+04 0.0000e+00 -1.0000e+00
  1000022 -1    0    0    0    0 -0.0000000000e+00 -0.0000000000e+00 -4.4721471353e+01 1.0000100000e+04 1.0000000000e+04 0.0000e+00 -1.0000e+00
      -24  1    1    2    0    0 -1.0139425702e+02 -5.2465704503e+03 -8.3807547028e+03 9.8883873480e+03 7.9829010000e+01 0.0000e+00 1.0000e+00
       24  1    1    2    0    0 -5.9523825951e+01 +1.9278369276e+03 +3.2413972111e+03 3.7726816532e+03 7.9829010000e+01 0.0000e+00 1.0000e+00
       22  1    1    2    0    0 +3.3576617562e+01 -4.6612277609e+01 -9.7321059398e+01 1.1301098298e+02 0.0000000000e+00 0.0000e+00 -1.0000e+00
       22  1    1    2    0    0 +1.2734146541e+02 +3.3653458003e+03 +5.2366785511e+03 6.2261200159e+03 0.0000000000e+00 0.0000e+00 1.0000e+00
</event>
<event>
 6      1 +1.4834189e-01 1.00749300e+04 7.81653100e-03 6.93422100e-02
  1000022 -1    0    0    0    0 +0.0000000000e+00 +0.0000000000e+00 +4.4721471353e+01 1.0000100000e+04 1.0000000000e+04 0.0000e+00 1.0000e+00
  1000022 -1    0    0    0    0 -0.0000000000e+00 -0.0000000000e+00 -4.4721471353e+01 1.0000100000e+04 1.0000000000e+04 0.0000e+00 1.0000e+00
      -24  1    1    2    0    0 +5.6548084990e+03 -7.2548314719e+03 -3.2054220736e+03 9.7411776591e+03 7.9829010000e+01 0.0000e+00 1.0000e+00
       24  1    1    2    0    0 -5.6548863702e+03 +7.3316966595e+03 +3.4180565208e+03 9.8702076380e+03 7.9829010000e+01 0.0000e+00 1.0000e+00
       22  1    1    2    0    0 -1.1363571662e+02 +5.8034856434e+01 -1.6009794764e+02 2.0472536114e+02 0.0000000000e+00 0.0000e+00 1.0000e+00
       22  1    1    2    0    0 +1.1371358782e+02 -1.3490004409e+02 -5.2536499587e+01 1.8408934173e+02 0.0000000000e+00 0.0000e+00 -1.0000e+00
</event>
<event>
 6      1 +1.4834189e-01 1.12901200e+04 7.81653100e-03 6.86623100e-02
  1000022 -1    0    0    0    0 +0.0000000000e+00 +0.0000000000e+00 +4.4721471353e+01 1.0000100000e+04 1.0000000000e+04 0.0000e+00 -1.0000e+00
  1000022 -1    0    0    0    0 -0.0000000000e+00 -0.0000000000e+00 -4.4721471353e+01 1.0000100000e+04 1.0000000000e+04 0.0000e+00 -1.0000e+00
      -24  1    1    2    0    0 +2.2862056376e+03 -5.8361056596e+03 +1.0239083591e+02 6.2692680627e+03 7.9829010000e+01 0.0000e+00 -1.0000e+00
       24  1    1    2    0    0 -7.0352854315e+03 +4.9775055550e+03 +1.2602803811e+03 8.7100793315e+03 7.9829010000e+01 0.0000e+00 -1.0000e+00
       22  1    1    2    0    0 +5.4429442588e+01 +3.6205779993e+01 -7.5123502141e+00 6.5801657510e+01 0.0000000000e+00 0.0000e+00 1.0000e+00
       22  1    1    2    0    0 +4.6946503513e+03 +8.2239432467e+02 -1.3551588668e+03 4.9550509483e+03 0.0000000000e+00 0.0000e+00 -1.0000e+00
</event>
<event>
 6      1 +1.4834189e-01 1.00007700e+04 7.81653100e-03 6.93867900e-02
  1000022 -1    0    0    0    0 +0.0000000000e+00 +0.0000000000e+00 +4.4721471353e+01 1.0000100000e+04 1.0000000000e+04 0.0000e+00 -1.0000e+00
  1000022 -1    0    0    0    0 -0.0000000000e+00 -0.0000000000e+00 -4.4721471353e+01 1.0000100000e+04 1.0000000000e+04 0.0000e+00 -1.0000e+00
      -24  1    1    2    0    0 +9.5072621114e+02 +1.5907746080e+03 +9.1780955738e+03 9.3636667612e+03 7.9829010000e+01 0.0000e+00 -1.0000e+00
       24  1    1    2    0    0 -9.6447237889e+02 -1.5856855184e+03 -8.9776797809e+03 9.1678630254e+03 7.9829010000e+01 0.0000e+00 -1.0000e+00
       22  1    1    2    0    0 -5.0578039755e+01 -1.6997519125e+02 -8.1243926308e+02 8.3156915524e+02 0.0000000000e+00 0.0000e+00 1.0000e+00
       22  1    1    2    0    0 +6.4324207507e+01 +1.6488610166e+02 +6.1202347018e+02 6.3710105811e+02 0.0000000000e+00 0.0000e+00 1.0000e+00
</event>
<event>
 6      1 +1.4834189e-01 1.00021100e+04 7.81653100e-03 6.93859800e-02
  1000022 -1    0    0    0    0 +0.0000000000e+00 +0.0000000000e+00 +4.4721471353e+01 1.0000100000e+04 1.0000000000e+04 0.0000e+00 -1.0000e+00
  1000022 -1    0    0    0    0 -0.0000000000e+00 -0.0000000000e+00 -4.4721471353e+01 1.0000100000e+04 1.0000000000e+04 0.0000e+00 -1.0000e+00
      -24  1    1    2    0    0 -9.3444263286e+03 -2.8460390206e+03 +1.8911791170e+03 9.9499332983e+03 7.9829010000e+01 0.0000e+00 1.0000e+00
       24  1    1    2    0    0 +7.5187605914e+03 +2.3410451477e+03 -1.4159971853e+03 8.0014794828e+03 7.9829010000e+01 0.0000e+00 1.0000e+00
       22  1    1    2    0    0 -4.6599799011e+01 -1.0783748241e+01 +5.5728666059e+00 4.8154826718e+01 0.0000000000e+00 0.0000e+00 -1.0000e+00
       22  1    1    2    0    0 +1.8722655362e+03 +5.1577762117e+02 -4.8075479825e+02 2.0006323922e+03 0.0000000000e+00 0.0000e+00 -1.0000e+00
</event>
<event>
 6      1 +1.4834189e-01 1.02690800e+04 7.81653100e-03 6.92273000e-02
  1000022 -1    0    0    0    0 +0.0000000000e+00 +0.0000000000e+00 +4.4721471353e+01 1.0000100000e+04 1.0000000000e+04 0.0000e+00 -1.0000e+00
  1000022 -1    0    0    0    0 -0.0000000000e+00 -0.0000000000e+00 -4.4721471353e+01 1.0000100000e+04 1.0000000000e+04 0.0000e+00 -1.0000e+00
      -24  1    1    2    0    0 +9.1077093120e+03 -7.4459870161e+02 +2.3247679211e+03 9.4295129618e+03 7.9829010000e+01 0.0000e+00 1.0000e+00
       24  1    1    2    0    0 -6.7209710766e+03 -9.8721358351e+02 -1.5432813411e+03 6.9666443027e+03 7.9829010000e+01 0.0000e+00 1.0000e+00
       22  1    1    2    0    0 -2.6831592867e+03 +1.7337722190e+03 -8.3712987641e+02 3.3024379321e+03 0.0000000000e+00 0.0000e+00 1.0000e+00
       22  1    1    2    0    0 +2.9642105134e+02 -1.9599339151e+00 +5.5643296403e+01 3.0160480343e+02 0.0000000000e+00 0.0000e+00 1.0000e+00
</event>
<event>
 6      1 +1.4834189e-01 1.00011600e+04 7.81653100e-03 6.93865500e-02
  1000022 -1    0    0    0    0 +0.0000000000e+00 +0.0000000000e+00 +4.4721471353e+01 1.0000100000e+04 1.0000000000e+04 0.0000e+00 -1.0000e+00
  1000022 -1    0    0    0    0 -0.0000000000e+00 -0.0000000000e+00 -4.4721471353e+01 1.0000100000e+04 1.0000000000e+04 0.0000e+00 -1.0000e+00
      -24  1    1    2    0    0 -5.8603734335e+03 +4.1699741004e+03 +6.6947677365e+03 9.8264412935e+03 7.9829010000e+01 0.0000e+00 -1.0000e+00
       24  1    1    2    0    0 +1.5189938109e+03 -1.1655386685e+03 -1.7783977878e+03 2.6143630099e+03 7.9829010000e+01 0.0000e+00 0.0000e+00
       22  1    1    2    0    0 -1.0421083029e+02 +7.3541405189e+01 +1.1628164231e+02 1.7259680115e+02 0.0000000000e+00 0.0000e+00 -1.0000e+00
       22  1    1    2    0    0 +4.4455904529e+03 -3.0779768370e+03 -5.0326515911e+03 7.3867988954e+03 0.0000000000e+00 0.0000e+00 -1.0000e+00
</event>
<event>
 6      1 +1.4834189e-01 5.56207400e+03 7.81653100e-03 7.31227800e-02
  1000022 -1    0    0    0    0 +0.0000000000e+00 +0.0000000000e+00 +4.4721471353e+01 1.0000100000e+04 1.0000000000e+04 0.0000e+00 -1.0000e+00
  1000022 -1    0    0    0    0 -0.0000000000e+00 -0.0000000000e+00 -4.4721471353e+01 1.0000100000e+04 1.0000000000e+04 0.0000e+00 -1.0000e+00
      -24  1    1    2    0    0 -2.4418880413e+03 -2.6061891880e+03 -1.8314703247e+03 4.0144358895e+03 7.9829010000e+01 0.0000e+00 -1.0000e+00
       24  1    1    2    0    0 +2.8330952271e+03 -3.9713086541e+03 +5.3357074035e+03 7.2300668848e+03 7.9829010000e+01 0.0000e+00 -1.0000e+00
       22  1    1    2    0    0 -1.8039925984e+03 +2.3506572332e+03 -3.0878699217e+03 4.2795933657e+03 0.0000000000e+00 0.0000e+00 -1.0000e+00
       22  1    1    2    0    0 +1.4127854125e+03 +4.2268406090e+03 -4.1636715711e+02 4.4761038600e+03 0.0000000000e+00 0.0000e+00 -1.0000e+00
</event>
<event>
 6      1 +1.4834189e-01 1.01063300e+04 7.81653100e-03 6.93234500e-02
  1000022 -1    0    0    0    0 +0.0000000000e+00 +0.0000000000e+00 +4.4721471353e+01 1.0000100000e+04 1.0000000000e+04 0.0000e+00 1.0000e+00
  1000022 -1    0    0    0    0 -0.0000000000e+00 -0.0000000000e+00 -4.4721471353e+01 1.0000100000e+04 1.0000000000e+04 0.0000e+00 1.0000e+00
      -24  1    1    2    0    0 +5.0889957465e+03 +8.4731548594e+03 +4.3595890119e+02 9.8938700119e+03 7.9829010000e+01 0.0000e+00 -1.0000e+00
       24  1    1    2    0    0 -3.8879432239e+03 -7.7700342074e+03 -3.2078022382e+02 8.6947574273e+03 7.9829010000e+01 0.0000e+00 -1.0000e+00
       22  1    1    2    0    0 -2.9502332068e+01 -6.8128833624e+01 -3.3504300929e+00 7.4317904641e+01 0.0000000000e+00 0.0000e+00 -1.0000e+00
       22  1    1    2    0    0 -1.1715501906e+03 -6.3499181830e+02 -1.1182824728e+02 1.3372546561e+03 0.0000000000e+00 0.0000e+00 -1.0000e+00
</event>
<event>
 6      1 +1.4834189e-01 1.01464100e+04 7.81653100e-03 6.92996000e-02
  1000022 -1    0    0    0    0 +0.0000000000e+00 +0.0000000000e+00 +4.4721471353e+01 1.0000100000e+04 1.0000000000e+04 0.0000e+00 -1.0000e+00
  1000022 -1    0    0    0    0 -0.0000000000e+00 -0.0000000000e+00 -4.4721471353e+01 1.0000100000e+04 1.0000000000e+04 0.0000e+00 -1.0000e+00
      -24  1    1    2    0    0 -9.2941498430e+03 -2.7901743262e+03 +1.2203559582e+02 9.7050275338e+03 7.9829010000e+01 0.0000e+00 -1.0000e+00
       24  1    1    2    0    0 +3.2774845201e+02 +5.4869968568e+01 -7.1805064504e+01 3.4922542773e+02 7.9829010000e+01 0.0000e+00 0.0000e+00
       22  1    1    2    0    0 -1.2243307182e+02 -1.9780881827e+01 -4.2359708195e+02 4.4137923399e+02 0.0000000000e+00 0.0000e+00 -1.0000e+00
       22  1    1    2    0    0 +9.0888344628e+03 +2.7550852395e+03 +3.7336655064e+02 9.5045678045e+03 0.0000000000e+00 0.0000e+00 -1.0000e+00
</event>
<event>
 6      1 +1.4834189e-01 1.00173900e+04 7.81653100e-03 6.93767600e-02
  1000022 -1    0    0    0    0 +0.0000000000e+00 +0.0000000000e+00 +4.4721471353e+01 1.0000100000e+04 1.0000000000e+04 0.0000e+00 -1.0000e+00
  1000022 -1    0    0    0    0 -0.0000000000e+00 -0.0000000000e+00 -4.4721471353e+01 1.0000100000e+04 1.0000000000e+04 0.0000e+00 -1.0000e+00
      -24  1    1    2    0    0 +1.6388294361e+03 -6.4824048334e+02 -2.1014318700e+03 2.7437868394e+03 7.9829010000e+01 0.0000e+00 1.0000e+00
       24  1    1    2    0    0 -7.0637907794e+02 +2.9895488770e+02 +5.2608769280e+02 9.3353433680e+02 7.9829010000e+01 0.0000e+00 -1.0000e+00
       22  1    1    2    0    0 -5.3272813575e+03 +2.2237403874e+03 +7.0136647237e+03 9.0838560551e+03 0.0000000000e+00 0.0000e+00 1.0000e+00
       22  1    1    2    0    0 +4.3948309993e+03 -1.8744547917e+03 -5.4383205465e+03 7.2390227687e+03 0.0000000000e+00 0.0000e+00 1.0000e+00
</event>
<event>
 6      1 +1.4834189e-01 1.00002100e+04 7.81653100e-03 6.93871300e-02
  1000022 -1    0    0    0    0 +0.0000000000e+00 +0.0000000000e+00 +4.4721471353e+01 1.0000100000e+04 1.0000000000e+04 0.0000e+00 -1.0000e+00
  1000022 -1    0    0    0    0 -0.0000000000e+00 -0.0000000000e+00 -4.4721471353e+01 1.0000100000e+04 1.0000000000e+04 0.0000e+00 -1.0000e+00
      -24  1    1    2    0    0 -5.3706283571e+03 +5.1164623262e+03 +6.6384896421e+03 9.9547854364e+03 7.9829010000e+01 0.0000e+00 1.0000e+00
       24  1    1    2    0    0 +5.3884411551e+03 -5.1266498984e+03 -6.6584820711e+03 9.9829651620e+03 7.9829010000e+01 0.0000e+00 1.0000e+00
       22  1    1    2    0    0 +6.8872329959e+00 -1.0894394778e+01 -1.1455735596e+01 1.7244004580e+01 0.0000000000e+00 0.0000e+00 -1.0000e+00
       22  1    1    2    0    0 -2.4700030974e+01 +2.1081967022e+01 +3.1448164592e+01 4.5205397021e+01 0.0000000000e+00 0.0000e+00 1.0000e+00
</event>
<event>
 6      1 +1.4834189e-01 1.01621100e+04 7.81653100e-03 6.92902900e-02
  1000022 -1    0    0    0    0 +0.0000000000e+00 +0.0000000000e+00 +4.4721471353e+01 1.0000100000e+04 1.0000000000e+04 0.0000e+00 -1.0000e+00
  1000022 -1    0    0    0    0 -0.0000000000e+00 -0.0000000000e+00 -4.4721471353e+01 1.0000100000e+04 1.0000000000e+04 0.0000e+00 -1.0000e+00
      -24  1    1    2    0    0 -4.5569038158e+03 +1.0538877412e+03 +4.5662046128e+02 4.7000985813e+03 7.9829010000e+01 0.0000e+00 -1.0000e+00
       24  1    1    2    0    0 +9.6851629606e+03 -1.2847313831e+03 -1.1526989326e+03 9.8380894385e+03 7.9829010000e+01 0.0000e+00 -1.0000e+00
       22  1    1    2    0    0 -3.9135238377e+03 +8.6667075689e+02 +2.3400769353e+02 4.0151645831e+03 0.0000000000e+00 0.0000e+00 -1.0000e+00
       22  1    1    2    0    0 -1.2147353071e+03 -6.3582711497e+02 +4.6207077775e+02 1.4468473970e+03 0.0000000000e+00 0.0000e+00 1.0000e+00
</event>
<event>
 6      1 +1.4834189e-01 1.00065500e+04 7.81653100e-03 6.93833000e-02
  1000022 -1    0    0    0    0 +0.0000000000e+00 +0.0000000000e+00 +4.4721471353e+01 1.0000100000e+04 1.0000000000e+04 0.0000e+00 -1.0000e+00
  1000022 -1    0    0    0    0 -0.0000000000e+00 -0.0000000000e+00 -4.4721471353e+01 1.0000100000e+04 1.0000000000e+04 0.0000e+00 -1.0000e+00
      -24  1    1    2    0    0 +5.5261114616e+03 -3.5323900798e+03 -7.5399574286e+03 9.9936488961e+03 7.9829010000e+01 0.0000e+00 1.0000e+00
       24  1    1    2    0    0 -5.2608040233e+03 +3.3164186449e+03 +7.1599959139e+03 9.4840184393e+03 7.9829010000e+01 0.0000e+00 1.0000e+00
       22  1    1    2    0    0 -2.3658625493e+01 +7.2482713169e+01 +6.2878947600e+01 9.8829329249e+01 0.0000000000e+00 0.0000e+00 -1.0000e+00
       22  1    1    2    0    0 -2.4164881288e+02 +1.4348872177e+02 +3.1708256710e+02 4.2370333537e+02 0.0000000000e+00 0.0000e+00 -1.0000e+00
</event>
<event>
 6      1 +1.4834189e-01 1.00051200e+04 7.81653100e-03 6.93841600e-02
  1000022 -1    0    0    0    0 +0.0000000000e+00 +0.0000000000e+00 +4.4721471353e+01 1.0000100000e+04 1.0000000000e+04 0.0000e+00 1.0000e+00
  1000022 -1    0    0    0    0 -0.0000000000e+00 -0.0000000000e+00 -4.4721471353e+01 1.0000100000e+04 1.0000000000e+04 0.0000e+00 1.0000e+00
      -24  1    1    2    0    0 +5.1683121070e+03 -4.5282711920e+03 -5.7089224790e+03 8.9339161942e+03 7.9829010000e+01 0.0000e+00 1.0000e+00
       24  1    1    2    0    0 -5.7409555679e+03 +4.9858533211e+03 +6.4867499356e+03 9.9950788676e+03 7.9829010000e+01 0.0000e+00 1.0000e+00
       22  1    1    2    0    0 +1.3236248799e+01 -1.2115060402e+01 -3.9271266070e+01 4.3176443920e+01 0.0000000000e+00 0.0000e+00 1.0000e+00
       22  1    1    2    0    0 +5.5940721213e+02 -4.4546706873e+02 -7.3855619053e+02 1.0280284942e+03 0.0000000000e+00 0.0000e+00 1.0000e+00
</event>
<event>
 6      1 +1.4834189e-01 1.02584500e+04 7.81653100e-03 6.92335200e-02
  1000022 -1    0    0    0    0 +0.0000000000e+00 +0.0000000000e+00 +4.4721471353e+01 1.0000100000e+04 1.0000000000e+04 0.0000e+00 1.0000e+00
  1000022 -1    0    0    0    0 -0.0000000000e+00 -0.0000000000e+00 -4.4721471353e+01 1.0000100000e+04 1.0000000000e+04 0.0000e+00 1.0000e+00
      -24  1    1    2    0    0 +1.3883121029e+02 -5.8969737304e+01 -7.1170878094e+02 7.3188359360e+02 7.9829010000e+01 0.0000e+00 1.0000e+00
       24  1    1    2    0    0 -4.7787271129e+03 -7.6553320538e+03 +3.6681074491e+03 9.7417517214e+03 7.9829010000e+01 0.0000e+00 1.0000e+00
       22  1    1    2    0    0 +5.0731636828e+01 +2.4531405307e+02 -2.4556274587e+02 3.5079017342e+02 0.0000000000e+00 0.0000e+00 1.0000e+00
       22  1    1    2    0    0 +4.5891642658e+03 +7.4689877380e+03 -2.7108359223e+03 9.1757745115e+03 0.0000000000e+00 0.0000e+00 1.0000e+00
</event>
<event>
 6      1 +1.4834189e-01 1.00292100e+04 7.81653100e-03 6.93696500e-02
  1000022 -1    0    0    0    0 +0.0000000000e+00 +0.0000000000e+00 +4.4721471353e+01 1.0000100000e+04 1.0000000000e+04 0.0000e+00 1.0000e+00
  1000022 -1    0    0    0    0 -0.0000000000e+00 -0.0000000000e+00 -4.4721471353e+01 1.0000100000e+04 1.0000000000e+04 0.0000e+00 1.0000e+00
      -24  1    1    2    0    0 +3.6091857700e+01 -2.3432753924e+02 -1.1263500273e+01 2.5042275279e+02 7.9829010000e+01 0.0000e+00 1.0000e+00
       24  1    1    2    0    0 +1.6719591009e+03 +8.5044724060e+03 -4.4978727497e+03 9.7651794701e+03 7.9829010000e+01 0.0000e+00 1.0000e+00
       22  1    1    2    0    0 +3.3233613718e+01 +1.8176505225e+02 -9.0631842790e+01 2.0580849892e+02 0.0000000000e+00 0.0000e+00 -1.0000e+00
       22  1    1    2    0    0 -1.7412845723e+03 -8.4519099190e+03 +4.5997680928e+03 9.7787892782e+03 0.0000000000e+00 0.0000e+00 1.0000e+00
</event>
<event>
 6      1 +1.4834189e-01 1.04665900e+04 7.81653100e-03 6.91129900e-02
  1000022 -1    0    0    0    0 +0.0000000000e+00 +0.0000000000e+00 +4.4721471353e+01 1.0000100000e+04 1.0000000000e+04 0.0000e+00 1.0000e+00
  1000022 -1    0    0    0    0 -0.0000000000e+00 -0.0000000000e+00 -4.4721471353e+01 1.0000100000e+04 1.0000000000e+04 0.0000e+00 1.0000e+00
      -24  1    1    2    0    0 -1.6199745169e+03 +8.5382313378e+03 -3.9188821853e+03 9.5336101277e+03 7.9829010000e+01 0.0000e+00 1.0000e+00
       24  1    1    2    0    0 +3.2284708840e+00 -1.9628802466e+02 +2.1228808305e+02 2.9996385231e+02 7.9829010000e+01 0.0000e+00 1.0000e+00
       22  1    1    2    0    0 -3.9184555316e+02 -7.0873160615e+03 +2.8238650149e+03 7.6392280706e+03 0.0000000000e+00 0.0000e+00 1.0000e+00
       22  1    1    2    0    0 +2.0085915992e+03 -1.2546272516e+03 +8.8272908739e+02 2.5273979494e+03 0.0000000000e+00 0.0000e+00 1.0000e+00
</event>
<event>
 6      1 +1.4834189e-01 1.01663000e+04 7.81653100e-03 6.92878100e-02
  1000022 -1    0    0    0    0 +0.0000000000e+00 +0.0000000000e+00 +4.4721471353e+01 1.0000100000e+04 1.0000000000e+04 0.0000e+00 1.0000e+00
  1000022 -1    0    0    0    0 -0.0000000000e+00 -0.0000000000e+00 -4.4721471353e+01 1.0000100000e+04 1.0000000000e+04 0.0000e+00 1.0000e+00
      -24  1    1    2    0    0 -8.2615491418e+03 -4.5090686475e+03 -1.3177439379e+03 9.5040894381e+03 7.9829010000e+01 0.0000e+00 -1.0000e+00
       24  1    1    2    0    0 +8.2740193337e+03 +5.1535717779e+03 +1.2963755976e+03 9.8339036178e+03 7.9829010000e+01 0.0000e+00 -1.0000e+00
       22  1    1    2    0    0 -8.4792982590e-01 -6.4894659739e+02 +2.4379938764e+01 6.4940494814e+02 0.0000000000e+00 0.0000e+00 -1.0000e+00
       22  1    1    2    0    0 -1.1622262043e+01 +4.4434670072e+00 -3.0115984993e+00 1.2801995921e+01 0.0000000000e+00 0.0000e+00 1.0000e+00
</event>
<event>
 6      1 +1.4834189e-01 1.00434700e+04 7.81653100e-03 6.93610700e-02
  1000022 -1    0    0    0    0 +0.0000000000e+00 +0.0000000000e+00 +4.4721471353e+01 1.0000100000e+04 1.0000000000e+04 0.0000e+00 1.0000e+00
  1000022 -1    0    0    0    0 -0.0000000000e+00 -0.0000000000e+00 -4.4721471353e+01 1.0000100000e+04 1.0000000000e+04 0.0000e+00 1.0000e+00
      -24  1    1    2    0    0 +4.4069515058e+03 +1.5035513323e+03 -3.1960507781e+03 5.6482741993e+03 7.9829010000e+01 0.0000e+00 -1.0000e+00
       24  1    1    2    0    0 -7.5470240156e+03 -1.9714110471e+03 +6.1875701425e+03 9.9567278736e+03 7.9829010000e+01 0.0000e+00 -1.0000e+00
       22  1    1    2    0    0 +5.9737906503e+02 +7.3394856192e+01 -3.0325066459e+02 6.7395067907e+02 0.0000000000e+00 0.0000e+00 -1.0000e+00
       22  1    1    2    0    0 +2.5426934448e+03 +3.9446485857e+02 -2.6882686998e+03 3.7212472481e+03 0.0000000000e+00 0.0000e+00 -1.0000e+00
</event>
<event>
 6      1 +1.4834189e-01 1.01962600e+04 7.81653100e-03 6.92701000e-02
  1000022 -1    0    0    0    0 +0.0000000000e+00 +0.0000000000e+00 +4.4721471353e+01 1.0000100000e+04 1.0000000000e+04 0.0000e+00 1.0000e+00
  1000022 -1    0    0    0    0 -0.0000000000e+00 -0.0000000000e+00 -4.4721471353e+01 1.0000100000e+04 1.0000000000e+04 0.0000e+00 1.0000e+00
      -24  1    1    2    0    0 +3.1392390197e+02 +6.1772097574e+02 +5.5304835267e+02 8.9014749976e+02 7.9829010000e+01 0.0000e+00 1.0000e+00
       24  1    1    2    0    0 -1.7094441323e+03 -9.2298580386e+03 -2.8281394957e+03 9.8039392252e+03 7.9829010000e+01 0.0000e+00 -1.0000e+00
       22  1    1    2    0    0 +8.5168358603e+02 +7.9128952742e+03 +1.4382578920e+03 8.0875127397e+03 0.0000000000e+00 0.0000e+00 -1.0000e+00
       22  1    1    2    0    0 +5.4383664431e+02 +6.9924178865e+02 +8.3683325103e+02 1.2186005353e+03 0.0000000000e+00 0.0000e+00 1.0000e+00
</event>
<event>
 6      1 +1.4834189e-01 1.00403500e+04 7.81653100e-03 6.93629500e-02
  1000022 -1    0    0    0    0 +0.0000000000e+00 +0.0000000000e+00 +4.4721471353e+01 1.0000100000e+04 1.0000000000e+04 0.0000e+00 1.0000e+00
  1000022 -1    0    0    0    0 -0.0000000000e+00 -0.0000000000e+00 -4.4721471353e+01 1.0000100000e+04 1.0000000000e+04 0.0000e+00 1.0000e+00
      -24  1    1    2    0    0 +3.8661802193e+03 +6.5930602052e+03 -4.1864455933e+03 8.7148431847e+03 7.9829010000e+01 0.0000e+00 -1.0000e+00
       24  1    1    2    0    0 -4.1885996880e+03 -7.3784156640e+03 +4.4281814986e+03 9.5708175781e+03 7.9829010000e+01 0.0000e+00 -1.0000e+00
       22  1    1    2    0    0 -2.4264098679e+02 -1.3417481249e+02 +3.7892196989e+02 4.6953102990e+02 0.0000000000e+00 0.0000e+00 1.0000e+00
       22  1    1    2    0    0 +5.6506045550e+02 +9.1953027127e+02 -6.2065787520e+02 1.2450082073e+03 0.0000000000e+00 0.0000e+00 -1.0000e+00
</event>
<event>
 6      1 +1.4834189e-01 1.03965500e+04 7.81653100e-03 6.91532300e-02
  1000022 -1    0    0    0    0 +0.0000000000e+00 +0.0000000000e+00 +4.4721471353e+01 1.0000100000e+04 1.0000000000e+04 0.0000e+00 1.0000e+00
  1000022 -1    0    0    0    0 -0.0000000000e+00 -0.0000000000e+00 -4.4721471353e+01 1.0000100000e+04 1.0000000000e+04 0.0000e+00 1.0000e+00
      -24  1    1    2    0    0 +3.0880856784e+02 -5.9633804741e+03 +4.0734370924e+03 7.2288679492e+03 7.9829010000e+01 0.0000e+00 -1.0000e+00
       24  1    1    2    0    0 +1.0992275938e+03 +6.8229694284e+03 -6.6680153144e+03 9.6036458717e+03 7.9829010000e+01 0.0000e+00 -1.0000e+00
       22  1    1    2    0    0 +4.0384514660e+01 -1.9388148204e+02 +1.4643664956e+02 2.4630190912e+02 0.0000000000e+00 0.0000e+00 1.0000e+00
       22  1    1    2    0    0 -1.4484206763e+03 -6.6570747223e+02 +2.4481415724e+03 2.9213842700e+03 0.0000000000e+00 0.0000e+00 -1.0000e+00
</event>
<event>
 6      1 +1.4834189e-01 1.00026000e+04 7.81653100e-03 6.93856900e-02
  1000022 -1    0    0    0    0 +0.0000000000e+00 +0.0000000000e+00 +4.4721471353e+01 1.0000100000e+04 1.0000000000e+04 0.0000e+00 -1.0000e+00
  1000022 -1    0    0    0    0 -0.0000000000e+00 -0.0000000000e+00 -4.4721471353e+01 1.0000100000e+04 1.0000000000e+04 0.0000e+00 -1.0000e+00
      -24  1    1    2    0    0 -9.6818925407e+03 +2.4111750121e+03 +3.3464684157e+02 9.9835449259e+03 7.9829010000e+01 0.0000e+00 1.0000e+00
       24  1    1    2    0    0 +9.6666182149e+03 -2.3945781721e+03 -3.3619318023e+02 9.9647835331e+03 7.9829010000e+01 0.0000e+00 1.0000e+00
       22  1    1    2    0    0 -1.6547139892e+01 -8.7872949109e+00 +3.4495497472e+00 1.9050558625e+01 0.0000000000e+00 0.0000e+00 1.0000e+00
       22  1    1    2    0    0 +3.1821465691e+01 -7.8095450409e+00 -1.9032110819e+00 3.2820982388e+01 0.0000000000e+00 0.0000e+00 -1.0000e+00
</event>
<event>
 6      1 +1.4834189e-01 1.03862100e+04 7.81653100e-03 6.91592000e-02
  1000022 -1    0    0    0    0 +0.0000000000e+00 +0.0000000000e+00 +4.4721471353e+01 1.0000100000e+04 1.0000000000e+04 0.0000e+00 1.0000e+00
  1000022 -1    0    0    0    0 -0.0000000000e+00 -0.0000000000e+00 -4.4721471353e+01 1.0000100000e+04 1.0000000000e+04 0.0000e+00 1.0000e+00
      -24  1    1    2    0    0 +6.5678104608e+02 +6.6289226701e+03 -1.9770339684e+03 6.9490296511e+03 7.9829010000e+01 0.0000e+00 1.0000e+00
       24  1    1    2    0    0 +1.6236813739e+03 -8.9743475187e+03 +2.8598500861e+03 9.5582618596e+03 7.9829010000e+01 0.0000e+00 1.0000e+00
       22  1    1    2    0    0 +1.2871752277e+01 -5.1535841669e+01 +1.6853164388e+01 5.5728396111e+01 0.0000000000e+00 0.0000e+00 -1.0000e+00
       22  1    1    2    0    0 -2.2933341722e+03 +2.3969606903e+03 -8.9966928205e+02 3.4371800932e+03 0.0000000000e+00 0.0000e+00 1.0000e+00
</event>
<event>
 6      1 +1.4834189e-01 1.07873600e+04 7.81653100e-03 6.89326500e-02
  1000022 -1    0    0    0    0 +0.0000000000e+00 +0.0000000000e+00 +4.4721471353e+01 1.0000100000e+04 1.0000000000e+04 0.0000e+00 -1.0000e+00
  1000022 -1    0    0    0    0 -0.0000000000e+00 -0.0000000000e+00 -4.4721471353e+01 1.0000100000e+04 1.0000000000e+04 0.0000e+00 -1.0000e+00
      -24  1    1    2    0    0 -2.8091740502e+03 -5.5327973704e+03 -6.6350039899e+03 9.0847650604e+03 7.9829010000e+01 0.0000e+00 -1.0000e+00
       24  1    1    2    0    0 +3.2535937090e+03 +2.7926299585e+03 +6.6891985867e+03 7.9458419637e+03 7.9829010000e+01 0.0000e+00 -1.0000e+00
       22  1    1    2    0    0 -5.1282857413e+01 -7.3778026740e+01 -9.1270322156e+01 1.2807576039e+02 0.0000000000e+00 0.0000e+00 -1.0000e+00
       22  1    1    2    0    0 -3.9313680130e+02 +2.8139454387e+03 +3.7075725304e+01 2.8415172155e+03 0.0000000000e+00 0.0000e+00 -1.0000e+00
</event>
<event>
 6      1 +1.4834189e-01 1.02874700e+04 7.81653100e-03 6.92165400e-02
  1000022 -1    0    0    0    0 +0.0000000000e+00 +0.0000000000e+00 +4.4721471353e+01 1.0000100000e+04 1.0000000000e+04 0.0000e+00 -1.0000e+00
  1000022 -1    0    0    0    0 -0.0000000000e+00 -0.0000000000e+00 -4.4721471353e+01 1.0000100000e+04 1.0000000000e+04 0.0000e+00 -1.0000e+00
      -24  1    1    2    0    0 -3.0176124544e+02 +4.9218393021e+03 -2.1893660054e+03 5.3958556450e+03 7.9829010000e+01 0.0000e+00 -1.0000e+00
       24  1    1    2    0    0 +6.2023607271e+02 -7.6455099254e+03 +4.5053386878e+03 8.8962331448e+03 7.9829010000e+01 0.0000e+00 -1.0000e+00
       22  1    1    2    0    0 -9.5532773387e+01 -1.2407302990e+03 -6.2210252994e+02 1.3912403614e+03 0.0000000000e+00 0.0000e+00 1.0000e+00
       22  1    1    2    0    0 -2.2294205388e+02 +3.9644009222e+03 -1.6938701524e+03 4.3168708487e+03 0.0000000000e+00 0.0000e+00 -1.0000e+00
</event>
<event>
 6      1 +1.4834189e-01 1.01505400e+04 7.81653100e-03 6.92971500e-02
  1000022 -1    0    0    0    0 +0.0000000000e+00 +0.0000000000e+00 +4.4721471353e+01 1.0000100000e+04 1.0000000000e+04 0.0000e+00 -1.0000e+00
  1000022 -1    0    0    0    0 -0.0000000000e+00 -0.0000000000e+00 -4.4721471353e+01 1.0000100000e+04 1.0000000000e+04 0.0000e+00 -1.0000e+00
      -24  1    1    2    0    0 +7.4112611015e+03 +6.6226795734e+02 +4.0520584386e+03 8.4729534534e+03 7.9829010000e+01 0.0000e+00 1.0000e+00
       24  1    1    2    0    0 -9.0306817630e+03 -4.7320632728e+02 -3.9028593930e+03 9.8496609812e+03 7.9829010000e+01 0.0000e+00 1.0000e+00
       22  1    1    2    0    0 +1.4683429341e+03 -2.0615024920e+02 -2.3767992203e+02 1.5016726150e+03 0.0000000000e+00 0.0000e+00 -1.0000e+00
       22  1    1    2    0    0 +1.5107772740e+02 +1.7088619141e+01 +8.8480876419e+01 1.7591295039e+02 0.0000000000e+00 0.0000e+00 -1.0000e+00
</event>
<event>
 6      1 +1.4834189e-01 1.01320600e+04 7.81653100e-03 6.93081200e-02
  1000022 -1    0    0    0    0 +0.0000000000e+00 +0.0000000000e+00 +4.4721471353e+01 1.0000100000e+04 1.0000000000e+04 0.0000e+00 -1.0000e+00
  1000022 -1    0    0    0    0 -0.0000000000e+00 -0.0000000000e+00 -4.4721471353e+01 1.0000100000e+04 1.0000000000e+04 0.0000e+00 -1.0000e+00
      -24  1    1    2    0    0 -2.6656891704e+03 -3.4860157657e+03 -8.8382986118e+03 9.8681355733e+03 7.9829010000e+01 0.0000e+00 -1.0000e+00
       24  1    1    2    0    0 +1.7933595351e+03 +1.3601624410e+03 +4.5181552613e+03 5.0483937964e+03 7.9829010000e+01 0.0000e+00 -1.0000e+00
       22  1    1    2    0    0 -2.0221066404e+02 +1.1843506703e+03 +1.4961554814e+03 1.9188686477e+03 0.0000000000e+00 0.0000e+00 1.0000e+00
       22  1    1    2    0    0 +1.0745402993e+03 +9.4150265437e+02 +2.8239878692e+03 3.1648019825e+03 0.0000000000e+00 0.0000e+00 1.0000e+00
</event>
<event>
 6      1 +1.4834189e-01 1.00001400e+04 7.81653100e-03 6.93871700e-02
  1000022 -1    0    0    0    0 +0.0000000000e+00 +0.0000000000e+00 +4.4721471353e+01 1.0000100000e+04 1.0000000000e+04 0.0000e+00 -1.0000e+00
  1000022 -1    0    0    0    0 -0.0000000000e+00 -0.0000000000e+00 -4.4721471353e+01 1.0000100000e+04 1.0000000000e+04 0.0000e+00 -1.0000e+00
      -24  1    1    2    0    0 +7.4759193768e+03 -3.7009747448e+03 +5.3838564129e+03 9.9286890946e+03 7.9829010000e+01 0.0000e+00 1.0000e+00
       24  1    1    2    0    0 -7.5136083721e+03 +3.7197903498e+03 -5.4118374987e+03 9.9792539200e+03 7.9829010000e+01 0.0000e+00 1.0000e+00
       22  1    1    2    0    0 +5.1713670061e+01 -2.8103074819e+01 +4.0365650980e+01 7.1368566361e+01 0.0000000000e+00 0.0000e+00 1.0000e+00
       22  1    1    2    0    0 -1.4024674780e+01 +9.2874698141e+00 -1.2384565177e+01 2.0888419108e+01 0.0000000000e+00 0.0000e+00 -1.0000e+00
</event>
<event>
 6      1 +1.4834189e-01 1.03490800e+04 7.81653100e-03 6.91806900e-02
  1000022 -1    0    0    0    0 +0.0000000000e+00 +0.0000000000e+00 +4.4721471353e+01 1.0000100000e+04 1.0000000000e+04 0.0000e+00 -1.0000e+00
  1000022 -1    0    0    0    0 -0.0000000000e+00 -0.0000000000e+00 -4.4721471353e+01 1.0000100000e+04 1.0000000000e+04 0.0000e+00 -1.0000e+00
      -24  1    1    2    0    0 +1.3363414889e+03 +3.6276517789e+03 +2.2532547519e+03 4.4753989378e+03 7.9829010000e+01 0.0000e+00 -1.0000e+00
       24  1    1    2    0    0 -3.7458043091e+03 -7.1413332202e+03 -5.3016943653e+03 9.6511152671e+03 7.9829010000e+01 0.0000e+00 -1.0000e+00
       22  1    1    2    0    0 +9.1245654988e+02 -2.6993598667e+02 +5.6147426160e+02 1.1048510030e+03 0.0000000000e+00 0.0000e+00 1.0000e+00
       22  1    1    2    0    0 +1.4970062703e+03 +3.7836174280e+03 +2.4869653517e+03 4.7688347922e+03 0.0000000000e+00 0.0000e+00 -1.0000e+00
</event>
<event>
 6      1 +1.4834189e-01 1.00011300e+04 7.81653100e-03 6.93865700e-02
  1000022 -1    0    0    0    0 +0.0000000000e+00 +0.0000000000e+00 +4.4721471353e+01 1.0000100000e+04 1.0000000000e+04 0.0000e+00 1.0000e+00
  1000022 -1    0    0    0    0 -0.0000000000e+00 -0.0000000000e+00 -4.4721471353e+01 1.0000100000e+04 1.0000000000e+04 0.0000e+00 1.0000e+00
      -24  1    1    2    0    0 +2.9427591738e+03 -3.6990408790e+03 -2.1533387257e+02 4.7323859022e+03 7.9829010000e+01 0.0000e+00 -1.0000e+00
       24  1    1    2    0    0 -5.8481394539e+03 +7.0640329886e+03 +4.1734789303e+02 9.1805146408e+03 7.9829010000e+01 0.0000e+00 -1.0000e+00
       22  1    1    2    0    0 -5.3099978520e+02 +6.2085311513e+02 +5.1050485234e+01 8.1855086250e+02 0.0000000000e+00 0.0000e+00 -1.0000e+00
       22  1    1    2    0    0 +3.4363800652e+03 -3.9858452247e+03 -2.5306450569e+02 5.2687485945e+03 0.0000000000e+00 0.0000e+00 1.0000e+00
</event>
<event>
 6      1 +1.4834189e-01 1.01065200e+04 7.81653100e-03 6.93233300e-02
  1000022 -1    0    0    0    0 +0.0000000000e+00 +0.0000000000e+00 +4.4721471353e+01 1.0000100000e+04 1.0000000000e+04 0.0000e+00 1.0000e+00
  1000022 -1    0    0    0    0 -0.0000000000e+00 -0.0000000000e+00 -4.4721471353e+01 1.0000100000e+04 1.0000000000e+04 0.0000e+00 1.0000e+00
      -24  1    1    2    0    0 +8.1565726992e+03 +9.4284740813e+02 +5.4639621694e+03 9.8630570662e+03 7.9829010000e+01 0.0000e+00 1.0000e+00
       24  1    1    2    0    0 -7.9253220720e+03 -6.5632815154e+02 -4.7066169907e+03 9.2412181424e+03 7.9829010000e+01 0.0000e+00 1.0000e+00
       22  1    1    2    0    0 +2.5035400545e+01 +6.9264156502e-01 +1.7621747395e+01 3.0623145071e+01 0.0000000000e+00 0.0000e+00 1.0000e+00
       22  1    1    2    0    0 -2.5628602773e+02 -2.8721189816e+02 -7.7496692611e+02 8.6530164626e+02 0.0000000000e+00 0.0000e+00 -1.0000e+00
</event>
<event>
 6      1 +1.4834189e-01 1.02833100e+04 7.81653100e-03 6.92189800e-02
  1000022 -1    0    0    0    0 +0.0000000000e+00 +0.0000000000e+00 +4.4721471353e+01 1.0000100000e+04 1.0000000000e+04 0.0000e+00 -1.0000e+00
  1000022 -1    0    0    0    0 -0.0000000000e+00 -0.0000000000e+00 -4.4721471353e+01 1.0000100000e+04 1.0000000000e+04 0.0000e+00 -1.0000e+00
      -24  1    1    2    0    0 -8.6518018456e+02 -1.8980810139e+03 +2.4437224545e+02 2.1017465956e+03 7.9829010000e+01 0.0000e+00 1.0000e+00
       24  1    1    2    0    0 +1.8585509959e+03 +8.5772506134e+03 +4.1699115927e+03 9.7168912339e+03 7.9829010000e+01 0.0000e+00 1.0000e+00
       22  1    1    2    0    0 -1.2457467455e+02 -1.4813391021e+02 +7.6457904457e+01 2.0810650170e+02 0.0000000000e+00 0.0000e+00 1.0000e+00
       22  1    1    2    0    0 -8.6879613684e+02 -6.5310356893e+03 -4.4907417426e+03 7.9734556687e+03 0.0000000000e+00 0.0000e+00 1.0000e+00
</event>
<event>
 6      1 +1.4834189e-01 1.00009200e+04 7.81653100e-03 6.93867000e-02
  1000022 -1    0    0    0    0 +0.0000000000e+00 +0.0000000000e+00 +4.4721471353e+01 1.0000100000e+04 1.0000000000e+04 0.0000e+00 1.0000e+00
  1000022 -1    0    0    0    0 -0.0000000000e+00 -0.0000000000e+00 -4.4721471353e+01 1.0000100000e+04 1.0000000000e+04 0.0000e+00 1.0000e+00
      -24  1    1    2    0    0 -7.7689344553e+03 +2.6537463007e+03 +5.6274682935e+03 9.9535663992e+03 7.9829010000e+01 0.0000e+00 -1.0000e+00
       24  1    1    2    0    0 +1.3192417168e+03 -4.3758636785e+02 -9.6468010946e+02 1.6937712127e+03 7.9829010000e+01 0.0000e+00 0.0000e+00
       22  1    1    2    0    0 +6.4857840938e+03 -2.2278240712e+03 -4.6883006834e+03 8.3071510581e+03 0.0000000000e+00 0.0000e+00 -1.0000e+00
       22  1    1    2    0    0 -3.6091355357e+01 +1.1664138368e+01 +2.5512499444e+01 4.5711329922e+01 0.0000000000e+00 0.0000e+00 -1.0000e+00
</event>
<event>
 6      1 +1.4834189e-01 1.00026200e+04 7.81653100e-03 6.93856700e-02
  1000022 -1    0    0    0    0 +0.0000000000e+00 +0.0000000000e+00 +4.4721471353e+01 1.0000100000e+04 1.0000000000e+04 0.0000e+00 -1.0000e+00
  1000022 -1    0    0    0    0 -0.0000000000e+00 -0.0000000000e+00 -4.4721471353e+01 1.0000100000e+04 1.0000000000e+04 0.0000e+00 -1.0000e+00
      -24  1    1    2    0    0 +7.2022893773e+03 +2.4664506232e+03 +6.1831469982e+03 9.8078555466e+03 7.9829010000e+01 0.0000e+00 -1.0000e+00
       24  1    1    2    0    0 -6.9220824815e+03 -2.3922207391e+03 -6.0493314545e+03 9.4994068058e+03 7.9829010000e+01 0.0000e+00 -1.0000e+00
       22  1    1    2    0    0 -4.2796709614e+02 -1.7278357658e+02 -2.0052687053e+02 5.0321071682e+02 0.0000000000e+00 0.0000e+00 -1.0000e+00
       22  1    1    2    0    0 +1.4776020038e+02 +9.8553692489e+01 +6.6711326846e+01 1.8972693074e+02 0.0000000000e+00 0.0000e+00 1.0000e+00
</event>
<event>
 6      1 +1.4834189e-01 1.00114800e+04 7.81653100e-03 6.93803300e-02
  1000022 -1    0    0    0    0 +0.0000000000e+00 +0.0000000000e+00 +4.4721471353e+01 1.0000100000e+04 1.0000000000e+04 0.0000e+00 1.0000e+00
  1000022 -1    0    0    0    0 -0.0000000000e+00 -0.0000000000e+00 -4.4721471353e+01 1.0000100000e+04 1.0000000000e+04 0.0000e+00 1.0000e+00
      -24  1    1    2    0    0 -7.3204353535e+03 -2.0894920255e+03 -6.4663349274e+03 9.9887241805e+03 7.9829010000e+01 0.0000e+00 1.0000e+00
       24  1    1    2    0    0 +7.1054391829e+03 +1.9552534644e+03 +6.2648848153e+03 9.6729228525e+03 7.9829010000e+01 0.0000e+00 1.0000e+00
       22  1    1    2    0    0 +2.0343064991e+02 +1.1487423236e+02 +2.1028947624e+02 3.1432750819e+02 0.0000000000e+00 0.0000e+00 -1.0000e+00
       22  1    1    2    0    0 +1.1565520702e+01 +1.9364328734e+01 -8.8393640905e+00 2.4225458798e+01 0.0000000000e+00 0.0000e+00 -1.0000e+00
</event>
<event>
 6      1 +1.4834189e-01 1.00969500e+04 7.81653100e-03 6.93290400e-02
  1000022 -1    0    0    0    0 +0.0000000000e+00 +0.0000000000e+00 +4.4721471353e+01 1.0000100000e+04 1.0000000000e+04 0.0000e+00 1.0000e+00
  1000022 -1    0    0    0    0 -0.0000000000e+00 -0.0000000000e+00 -4.4721471353e+01 1.0000100000e+04 1.0000000000e+04 0.0000e+00 1.0000e+00
      -24  1    1    2    0    0 -5.1032641714e+03 -5.2424154786e+03 +5.2596630006e+03 9.0109185328e+03 7.9829010000e+01 0.0000e+00 1.0000e+00
       24  1    1    2    0    0 +5.8007950946e+03 +5.3043290338e+03 -6.0235192339e+03 9.9032462789e+03 7.9829010000e+01 0.0000e+00 1.0000e+00
       22  1    1    2    0    0 -5.3855572268e+02 +5.9283101554e+01 +6.7948586149e+02 8.6905568782e+02 0.0000000000e+00 0.0000e+00 1.0000e+00
       22  1    1    2    0    0 -1.5897520057e+02 -1.2119665672e+02 +8.4370371808e+01 2.1697950049e+02 0.0000000000e+00 0.0000e+00 1.0000e+00
</event>
<event>
 6      1 +1.4834189e-01 1.01149400e+04 7.81653100e-03 6.93183200e-02
  1000022 -1    0    0    0    0 +0.0000000000e+00 +0.0000000000e+00 +4.4721471353e+01 1.0000100000e+04 1.0000000000e+04 0.0000e+00 1.0000e+00
  1000022 -1    0    0    0    0 -0.0000000000e+00 -0.0000000000e+00 -4.4721471353e+01 1.0000100000e+04 1.0000000000e+04 0.0000e+00 1.0000e+00
      -24  1    1    2    0    0 -3.8893265017e+03 +7.2065164425e+03 -5.4275109179e+03 9.8247130904e+03 7.9829010000e+01 0.0000e+00 -1.0000e+00
       24  1    1    2    0    0 +2.6021910920e+03 -5.1982222390e+03 +4.9271241595e+03 7.6207504932e+03 7.9829010000e+01 0.0000e+00 -1.0000e+00
       22  1    1    2    0    0 +1.3113037327e+03 -2.0538449771e+03 +5.3212837862e+02 2.4941846926e+03 0.0000000000e+00 0.0000e+00 -1.0000e+00
       22  1    1    2    0    0 -2.4168322939e+01 +4.5550773605e+01 -3.1741620167e+01 6.0551723844e+01 0.0000000000e+00 0.0000e+00 -1.0000e+00
</event>
<event>
 6      1 +1.4834189e-01 1.00028200e+04 7.81653100e-03 6.93855500e-02
  1000022 -1    0    0    0    0 +0.0000000000e+00 +0.0000000000e+00 +4.4721471353e+01 1.0000100000e+04 1.0000000000e+04 0.0000e+00 1.0000e+00
  1000022 -1    0    0    0    0 -0.0000000000e+00 -0.0000000000e+00 -4.4721471353e+01 1.0000100000e+04 1.0000000000e+04 0.0000e+00 1.0000e+00
      -24  1    1    2    0    0 +5.3703178445e+03 +6.5703417658e+03 -5.2401424017e+03 9.9737239651e+03 7.9829010000e+01 0.0000e+00 1.0000e+00
       24  1    1    2    0    0 -2.0245498916e+02 -1.7802171588e+02 +1.1248689510e+02 3.0282953352e+02 7.9829010000e+01 0.0000e+00 -1.0000e+00
       22  1    1    2    0    0 -5.1826462640e+03 -6.3752213640e+03 +5.1459750308e+03 9.6945514984e+03 0.0000000000e+00 0.0000e+00 1.0000e+00
       22  1    1    2    0    0 +1.4783408747e+01 -1.7098685920e+01 -1.8319524137e+01 2.9095002990e+01 0.0000000000e+00 0.0000e+00 -1.0000e+00
</event>
<event>
 6      1 +1.4834189e-01 1.00118300e+04 7.81653100e-03 6.93801100e-02
  1000022 -1    0    0    0    0 +0.0000000000e+00 +0.0000000000e+00 +4.4721471353e+01 1.0000100000e+04 1.0000000000e+04 0.0000e+00 -1.0000e+00
  1000022 -1    0    0    0    0 -0.0000000000e+00 -0.0000000000e+00 -4.4721471353e+01 1.0000100000e+04 1.0000000000e+04 0.0000e+00 -1.0000e+00
      -24  1    1    2    0    0 +8.8539658493e+03 +2.7035558547e+03 -2.1497914825e+03 9.5042044175e+03 7.9829010000e+01 0.0000e+00 -1.0000e+00
       24  1    1    2    0    0 -1.2982095109e+03 -2.6640200537e+02 +1.1885839240e+02 1.3329733497e+03 7.9829010000e+01 0.0000e+00 -1.0000e+00
       22  1    1    2    0    0 -8.0036388745e+03 -2.5819631434e+03 +2.1442623221e+03 8.6788610896e+03 0.0000000000e+00 0.0000e+00 -1.0000e+00
       22  1    1    2    0    0 +4.4788253606e+02 +1.4480929408e+02 -1.1332923197e+02 4.8416114319e+02 0.0000000000e+00 0.0000e+00 1.0000e+00
</event>
<event>
 6      1 +1.4834189e-01 1.01389000e+04 7.81653100e-03 6.93040600e-02
  1000022 -1    0    0    0    0 +0.0000000000e+00 +0.0000000000e+00 +4.4721471353e+01 1.0000100000e+04 1.0000000000e+04 0.0000e+00 -1.0000e+00
  1000022 -1    0    0    0    0 -0.0000000000e+00 -0.0000000000e+00 -4.4721471353e+01 1.0000100000e+04 1.0000000000e+04 0.0000e+00 -1.0000e+00
      -24  1    1    2    0    0 -6.2779640486e+03 +1.2985233486e+03 -6.8011067786e+03 9.3466797082e+03 7.9829010000e+01 0.0000e+00 -1.0000e+00
       24  1    1    2    0    0 +2.2527855581e+03 +6.4493043731e+02 +2.0445365844e+03 3.1108649208e+03 7.9829010000e+01 0.0000e+00 -1.0000e+00
       22  1    1    2    0    0 +4.4109742796e+03 -2.0016463066e+03 +5.0921469855e+03 7.0280326517e+03 0.0000000000e+00 0.0000e+00 -1.0000e+00
       22  1    1    2    0    0 -3.8579578912e+02 +5.8192520683e+01 -3.3557679128e+02 5.1462271930e+02 0.0000000000e+00 0.0000e+00 1.0000e+00
</event>
<event>
 6      1 +1.4834189e-01 1.00043500e+04 7.81653100e-03 6.93846300e-02
  1000022 -1    0    0    0    0 +0.0000000000e+00 +0.0000000000e+00 +4.4721471353e+01 1.0000100000e+04 1.0000000000e+04 0.0000e+00 1.0000e+00
  1000022 -1    0    0    0    0 -0.0000000000e+00 -0.0000000000e+00 -4.4721471353e+01 1.0000100000e+04 1.0000000000e+04 0.0000e+00 1.0000e+00
      -24  1    1    2    0    0 -2.9284321656e+03 -2.2544563793e+03 +9.8372595242e+02 3.8252291350e+03 7.9829010000e+01 0.0000e+00 1.0000e+00
       24  1    1    2    0    0 +6.5707913409e+03 +5.1645605744e+03 -1.6449540341e+03 8.5182293476e+03 7.9829010000e+01 0.0000e+00 1.0000e+00
       22  1    1    2    0    0 +1.1469842126e+03 +8.5672386954e+02 -3.6579283852e+02 1.4776173298e+03 0.0000000000e+00 0.0000e+00 -1.0000e+00
       22  1    1    2    0    0 -4.7893433879e+03 -3.7668280646e+03 +1.0270209202e+03 6.1791241877e+03 0.0000000000e+00 0.0000e+00 1.0000e+00
</event>
<event>
 6      1 +1.4834189e-01 1.01622100e+04 7.81653100e-03 6.92902300e-02
  1000022 -1    0    0    0    0 +0.0000000000e+00 +0.0000000000e+00 +4.4721471353e+01 1.0000100000e+04 1.0000000000e+04 0.0000e+00 1.0000e+00
  1000022 -1    0    0    0    0 -0.0000000000e+00 -0.0000000000e+00 -4.4721471353e+01 1.0000100000e+04 1.0000000000e+04 0.0000e+00 1.0000e+00
      -24  1    1    2    0    0 +3.1313791560e+03 +2.5770785354e+03 -8.9121040320e+03 9.7917741060e+03 7.9829010000e+01 0.0000e+00 -1.0000e+00
       24  1    1    2    0    0 -3.1885683846e+03 -1.2089361059e+03 +5.9569716753e+03 6.8644285313e+03 7.9829010000e+01 0.0000e+00 -1.0000e+00
       22  1    1    2    0    0 +1.3666614360e+01 +2.2904797295e+00 -4.4093604745e+01 4.6219786075e+01 0.0000000000e+00 0.0000e+00 1.0000e+00
       22  1    1    2    0    0 +4.3522614243e+01 -1.3704329092e+03 +2.9992259615e+03 3.2977775766e+03 0.0000000000e+00 0.0000e+00 1.0000e+00
</event>
<event>
 6      1 +1.4834189e-01 1.00442000e+04 7.81653100e-03 6.93606300e-02
  1000022 -1    0    0    0    0 +0.0000000000e+00 +0.0000000000e+00 +4.4721471353e+01 1.0000100000e+04 1.0000000000e+04 0.0000e+00 1.0000e+00
  1000022 -1    0    0    0    0 -0.0000000000e+00 -0.0000000000e+00 -4.4721471353e+01 1.0000100000e+04 1.0000000000e+04 0.0000e+00 1.0000e+00
      -24  1    1    2    0    0 -1.4078003245e+02 -8.8170708355e+03 +4.6211446233e+03 9.9559985655e+03 7.9829010000e+01 0.0000e+00 -1.0000e+00
       24  1    1    2    0    0 +3.4858555324e+02 +8.2307279386e+03 -3.9845069843e+03 9.1514514076e+03 7.9829010000e+01 0.0000e+00 -1.0000e+00
       22  1    1    2    0    0 -2.5532737002e+00 +4.0253513196e+01 -2.4753013779e+01 4.7324161085e+01 0.0000000000e+00 0.0000e+00 -1.0000e+00
       22  1    1    2    0    0 -2.0525224709e+02 +5.4608938372e+02 -6.1188462524e+02 8.4542586579e+02 0.0000000000e+00 0.0000e+00 -1.0000e+00
</event>
<event>
 6      1 +1.4834189e-01 1.04259000e+04 7.81653100e-03 6.91363300e-02
  1000022 -1    0    0    0    0 +0.0000000000e+00 +0.0000000000e+00 +4.4721471353e+01 1.0000100000e+04 1.0000000000e+04 0.0000e+00 1.0000e+00
  1000022 -1    0    0    0    0 -0.0000000000e+00 -0.0000000000e+00 -4.4721471353e+01 1.0000100000e+04 1.0000000000e+04 0.0000e+00 1.0000e+00
      -24  1    1    2    0    0 -3.2188726823e+03 +3.3685522992e+03 +7.1662783040e+03 8.5481110977e+03 7.9829010000e+01 0.0000e+00 -1.0000e+00
       24  1    1    2    0    0 +2.7559487717e+03 -4.8274554684e+03 -6.9822762662e+03 8.9251405848e+03 7.9829010000e+01 0.0000e+00 -1.0000e+00
       22  1    1    2    0    0 +2.8050852995e+02 +1.8295006189e+03 +3.1678158904e+02 1.8777934192e+03 0.0000000000e+00 0.0000e+00 1.0000e+00
       22  1    1    2    0    0 +1.8241538066e+02 -3.7059744978e+02 -5.0078362692e+02 6.4915489821e+02 0.0000000000e+00 0.0000e+00 1.0000e+00
</event>
<event>
 6      1 +1.4834189e-01 1.00292000e+04 7.81653100e-03 6.93696500e-02
  1000022 -1    0    0    0    0 +0.0000000000e+00 +0.0000000000e+00 +4.4721471353e+01 1.0000100000e+04 1.0000000000e+04 0.0000e+00 -1.0000e+00
  1000022 -1    0    0    0    0 -0.0000000000e+00 -0.0000000000e+00 -4.4721471353e+01 1.0000100000e+04 1.0000000000e+04 0.0000e+00 -1.0000e+00
      -24  1    1    2    0    0 +9.6117576346e+03 +2.4945221639e+03 +6.4233349583e+02 9.9512557320e+03 7.9829010000e+01 0.0000e+00 1.0000e+00
       24  1    1    2    0    0 -1.4172548754e+03 -6.4201651361e+02 +1.8101547066e+02 1.5684182660e+03 7.9829010000e+01 0.0000e+00 -1.0000e+00
       22  1    1    2    0    0 +1.8639638815e+01 +2.5928659231e+00 +5.9662402359e+00 1.9742216477e+01 0.0000000000e+00 0.0000e+00 -1.0000e+00
       22  1    1    2    0    0 -8.2131423980e+03 -1.8550985162e+03 -8.2931520673e+02 8.4607837856e+03 0.0000000000e+00 0.0000e+00 1.0000e+00
</event>
<event>
 6      1 +1.4834189e-01 1.00006800e+04 7.81653100e-03 6.93868400e-02
  1000022 -1    0    0    0    0 +0.0000000000e+00 +0.0000000000e+00 +4.4721471353e+01 1.0000100000e+04 1.0000000000e+04 0.0000e+00 -1.0000e+00
  1000022 -1    0    0    0    0 -0.0000000000e+00 -0.0000000000e+00 -4.4721471353e+01 1.0000100000e+04 1.0000000000e+04 0.0000e+00 -1.0000e+00
      -24  1    1    2    0    0 -6.9308898059e+03 +6.0081525205e+03 +3.3853324397e+03 9.7776264302e+03 7.9829010000e+01 0.0000e+00 1.0000e+00
       24  1    1    2    0    0 +6.8254461857e+03 -6.0016031933e+03 -3.3988356716e+03 9.7038349696e+03 7.9829010000e+01 0.0000e+00 1.0000e+00
       22  1    1    2    0    0 -1.2763711271e+02 +1.5517190724e+02 +9.6866765465e+01 2.2305318556e+02 0.0000000000e+00 0.0000e+00 1.0000e+00
       22  1    1    2    0    0 +2.3308073293e+02 -1.6172123440e+02 -8.3363533524e+01 2.9568541466e+02 0.0000000000e+00 0.0000e+00 1.0000e+00
</event>
<event>
 6      1 +1.4834189e-01 1.02223700e+04 7.81653100e-03 6.92547100e-02
  1000022 -1    0    0    0    0 +0.0000000000e+00 +0.0000000000e+00 +4.4721471353e+01 1.0000100000e+04 1.0000000000e+04 0.0000e+00 -1.0000e+00
  1000022 -1    0    0    0    0 -0.0000000000e+00 -0.0000000000e+00 -4.4721471353e+01 1.0000100000e+04 1.0000000000e+04 0.0000e+00 -1.0000e+00
      -24  1    1    2    0    0 +3.9483309773e+03 -1.7573838488e+03 +8.7705116460e+03 9.7778301633e+03 7.9829010000e+01 0.0000e+00 -1.0000e+00
       24  1    1    2    0    0 -8.3863253557e+02 +1.3578111109e+02 -4.6716307122e+03 4.7489206376e+03 7.9829010000e+01 0.0000e+00 -1.0000e+00
       22  1    1    2    0    0 -3.1100512647e+03 +1.6957333531e+03 -3.9408169662e+03 5.2988648629e+03 0.0000000000e+00 0.0000e+00 -1.0000e+00
       22  1    1    2    0    0 +3.5282296138e-01 -7.4130615428e+01 -1.5806396753e+02 1.7458433624e+02 0.0000000000e+00 0.0000e+00 1.0000e+00
</event>
<event>
 6      1 +1.4834189e-01 1.00008600e+04 7.81653100e-03 6.93867400e-02
  1000022 -1    0    0    0    0 +0.0000000000e+00 +0.0000000000e+00 +4.4721471353e+01 1.0000100000e+04 1.0000000000e+04 0.0000e+00 -1.0000e+00
  1000022 -1    0    0    0    0 -0.0000000000e+00 -0.0000000000e+00 -4.4721471353e+01 1.0000100000e+04 1.0000000000e+04 0.0000e+00 -1.0000e+00
      -24  1    1    2    0    0 -9.5662068939e+03 -1.5423906833e+02 +2.6464273287e+03 9.9270365318e+03 7.9829010000e+01 0.0000e+00 -1.0000e+00
       24  1    1    2    0    0 +9.5461008835e+03 +1.6886052302e+02 -2.6308148775e+03 9.9037425019e+03 7.9829010000e+01 0.0000e+00 -1.0000e+00
       22  1    1    2    0    0 +9.0346099667e+01 -1.4028883283e+01 -3.2751066197e+01 9.7117761652e+01 0.0000000000e+00 0.0000e+00 -1.0000e+00
       22  1    1    2    0    0 -7.0240089267e+01 -5.9257140905e-01 +1.7138614964e+01 7.2303204659e+01 0.0000000000e+00 0.0000e+00 1.0000e+00
</event>
<event>
 6      1 +1.4834189e-01 1.05825600e+04 7.81653100e-03 6.90470500e-02
  1000022 -1    0    0    0    0 +0.0000000000e+00 +0.0000000000e+00 +4.4721471353e+01 1.0000100000e+04 1.0000000000e+04 0.0000e+00 -1.0000e+00
  1000022 -1    0    0    0    0 -0.0000000000e+00 -0.0000000000e+00 -4.4721471353e+01 1.0000100000e+04 1.0000000000e+04 0.0000e+00 -1.0000e+00
      -24  1    1    2    0    0 -2.6506673893e+03 -8.6202299137e+03 -2.7112956555e+03 9.4176376113e+03 7.9829010000e+01 0.0000e+00 1.0000e+00
       24  1    1    2    0    0 -3.1753704217e+02 +2.8643737011e+03 +1.3698013325e+03 3.1918951791e+03 7.9829010000e+01 0.0000e+00 1.0000e+00
       22  1    1    2    0    0 +1.9187465891e+03 +5.6556101073e+03 +4.1408547196e+02 5.9865667070e+03 0.0000000000e+00 0.0000e+00 1.0000e+00
       22  1    1    2    0    0 +1.0494578424e+03 +1.0024610529e+02 +9.2740885110e+02 1.4041005027e+03 0.0000000000e+00 0.0000e+00 -1.0000e+00
</event>
<event>
 6      1 +1.4834189e-01 1.01425100e+04 7.81653100e-03 6.93019200e-02
  1000022 -1    0    0    0    0 +0.0000000000e+00 +0.0000000000e+00 +4.4721471353e+01 1.0000100000e+04 1.0000000000e+04 0.0000e+00 -1.0000e+00
  1000022 -1    0    0    0    0 -0.0000000000e+00 -0.0000000000e+00 -4.4721471353e+01 1.0000100000e+04 1.0000000000e+04 0.0000e+00 -1.0000e+00
      -24  1    1    2    0    0 +9.3096567202e+02 +6.9257805380e+02 +7.0173379981e+02 1.3583683005e+03 7.9829010000e+01 0.0000e+00 -1.0000e+00
       24  1    1    2    0    0 -1.5008856318e+03 -5.7267272527e+03 -7.8101827175e+03 9.8006831118e+03 7.9829010000e+01 0.0000e+00 -1.0000e+00
       22  1    1    2    0    0 +1.1223866823e+01 -3.3853731980e+01 -4.4474464614e+01 5.7009019972e+01 0.0000000000e+00 0.0000e+00 -1.0000e+00
       22  1    1    2    0    0 +5.5869609296e+02 +5.0680029309e+03 +7.1529233823e+03 8.7841395677e+03 0.0000000000e+00 0.0000e+00 -1.0000e+00
</event>
<event>
 6      1 +1.4834189e-01 1.00182600e+04 7.81653100e-03 6.93762400e-02
  1000022 -1    0    0    0    0 +0.0000000000e+00 +0.0000000000e+00 +4.4721471353e+01 1.0000100000e+04 1.0000000000e+04 0.0000e+00 -1.0000e+00
  1000022 -1    0    0    0    0 -0.0000000000e+00 -0.0000000000e+00 -4.4721471353e+01 1.0000100000e+04 1.0000000000e+04 0.0000e+00 -1.0000e+00
      -24  1    1    2    0    0 -7.9840610870e+03 -5.3415920423e+03 +1.3521259293e+03 9.7011573632e+03 7.9829010000e+01 0.0000e+00 -1.0000e+00
       24  1    1    2    0    0 +1.7918381246e+03 +1.7482075376e+03 -5.9633034909e+02 2.5746642529e+03 7.9829010000e+01 0.0000e+00 -1.0000e+00
       22  1    1    2    0    0 -1.3755794324e+02 -2.4028364283e+02 +4.6692560087e+01 2.8078214318e+02 0.0000000000e+00 0.0000e+00 -1.0000e+00
       22  1    1    2    0    0 +6.3297809057e+03 +3.8336681476e+03 -8.0248814032e+02 7.4435962407e+03 0.0000000000e+00 0.0000e+00 -1.0000e+00
</event>
<event>
 6      1 +1.4834189e-01 1.00508800e+04 7.81653100e-03 6.93566300e-02
  1000022 -1    0    0    0    0 +0.0000000000e+00 +0.0000000000e+00 +4.4721471353e+01 1.0000100000e+04 1.0000000000e+04 0.0000e+00 -1.0000e+00
  1000022 -1    0    0    0    0 -0.0000000000e+00 -0.0000000000e+00 -4.4721471353e+01 1.0000100000e+04 1.0000000000e+04 0.0000e+00 -1.0000e+00
      -24  1    1    2    0    0 -2.3127106840e+03 -2.9690018060e+03 -7.6171231273e+03 8.4965016235e+03 7.9829010000e+01 0.0000e+00 -1.0000e+00
       24  1    1    2    0    0 +2.8131500143e+03 +3.3693464923e+03 +8.7650757101e+03 9.8030216598e+03 7.9829010000e+01 0.0000e+00 -1.0000e+00
       22  1    1    2    0    0 -1.4871937295e+02 +2.1202256257e+01 +1.9714272023e+02 2.4785527975e+02 0.0000000000e+00 0.0000e+00 -1.0000e+00
       22  1    1    2    0    0 -3.5171995736e+02 -4.2154694251e+02 -1.3450953031e+03 1.4528214369e+03 0.0000000000e+00 0.0000e+00 -1.0000e+00
</event>
<event>
 6      1 +1.4834189e-01 1.00004500e+04 7.81653100e-03 6.93869800e-02
  1000022 -1    0    0    0    0 +0.0000000000e+00 +0.0000000000e+00 +4.4721471353e+01 1.0000100000e+04 1.0000000000e+04 0.0000e+00 1.0000e+00
  1000022 -1    0    0    0    0 -0.0000000000e+00 -0.0000000000e+00 -4.4721471353e+01 1.0000100000e+04 1.0000000000e+04 0.0000e+00 1.0000e+00
      -24  1    1    2    0    0 +4.2304995442e+03 +8.5088674355e+03 -3.0290272723e+03 9.9739325401e+03 7.9829010000e+01 0.0000e+00 -1.0000e+00
       24  1    1    2    0    0 -4.0778285604e+03 -8.2510481067e+03 +2.9353819651e+03 9.6608136603e+03 7.9829010000e+01 0.0000e+00 -1.0000e+00
       22  1    1    2    0    0 +1.0607134438e+01 +2.2527851049e+01 -6.8343400630e+00 2.5820991034e+01 0.0000000000e+00 0.0000e+00 -1.0000e+00
       22  1    1    2    0    0 -1.6327811820e+02 -2.8034717978e+02 +1.0047964729e+02 3.3963280850e+02 0.0000000000e+00 0.0000e+00 1.0000e+00
</event>
<event>
 6      1 +1.4834189e-01 1.01759700e+04 7.81653100e-03 6.92820800e-02
  1000022 -1    0    0    0    0 +0.0000000000e+00 +0.0000000000e+00 +4.4721471353e+01 1.0000100000e+04 1.0000000000e+04 0.0000e+00 -1.0000e+00
  1000022 -1    0    0    0    0 -0.0000000000e+00 -0.0000000000e+00 -4.4721471353e+01 1.0000100000e+04 1.0000000000e+04 0.0000e+00 -1.0000e+00
      -24  1    1    2    0    0 +3.4495672803e+03 +4.7707276485e+03 +1.5061948398e+03 6.0773639255e+03 7.9829010000e+01 0.0000e+00 -1.0000e+00
       24  1    1    2    0    0 -3.8725319856e+03 -8.7750587190e+03 -1.7953932259e+03 9.7584819008e+03 7.9829010000e+01 0.0000e+00 -1.0000e+00
       22  1    1    2    0    0 +4.5134670375e+02 +4.0626002012e+03 +3.0023876661e+02 4.0986067827e+03 0.0000000000e+00 0.0000e+00 -1.0000e+00
       22  1    1    2    0    0 -2.8381998474e+01 -5.8269130659e+01 -1.1040380449e+01 6.5747391018e+01 0.0000000000e+00 0.0000e+00 -1.0000e+00
</event>
<event>
 6      1 +1.4834189e-01 1.00246000e+04 7.81653100e-03 6.93724200e-02
  1000022 -1    0    0    0    0 +0.0000000000e+00 +0.0000000000e+00 +4.4721471353e+01 1.0000100000e+04 1.0000000000e+04 0.0000e+00 -1.0000e+00
  1000022 -1    0    0    0    0 -0.0000000000e+00 -0.0000000000e+00 -4.4721471353e+01 1.0000100000e+04 1.0000000000e+04 0.0000e+00 -1.0000e+00
      -24  1    1    2    0    0 -5.8477188587e+03 +4.1472549414e+03 +6.8789969771e+03 9.9359202635e+03 7.9829010000e+01 0.0000e+00 -1.0000e+00
       24  1    1    2    0    0 +5.7402570260e+03 -4.1519570543e+03 -6.9472549027e+03 9.9227023264e+03 7.9829010000e+01 0.0000e+00 -1.0000e+00
       22  1    1    2    0    0 +4.8650752387e+01 +2.0413502325e+01 +3.7666544332e+00 5.2894181822e+01 0.0000000000e+00 0.0000e+00 1.0000e+00
       22  1    1    2    0    0 +5.8811080330e+01 -1.5711389411e+01 +6.4491271118e+01 8.8683228275e+01 0.0000000000e+00 0.0000e+00 -1.0000e+00
</event>
<event>
 6      1 +1.4834189e-01 1.01534300e+04 7.81653100e-03 6.92954400e-02
  1000022 -1    0    0    0    0 +0.0000000000e+00 +0.0000000000e+00 +4.4721471353e+01 1.0000100000e+04 1.0000000000e+04 0.0000e+00 -1.0000e+00
  1000022 -1    0    0    0    0 -0.0000000000e+00 -0.0000000000e+00 -4.4721471353e+01 1.0000100000e+04 1.0000000000e+04 0.0000e+00 -1.0000e+00
      -24  1    1    2    0    0 +3.7956686967e+03 -1.4245158029e+03 -1.1563098453e+02 4.0566105708e+03 7.9829010000e+01 0.0000e+00 -1.0000e+00
       24  1    1    2    0    0 -1.3038801618e+03 +4.6837534268e+02 +8.1588466526e+02 1.6098196781e+03 7.9829010000e+01 0.0000e+00 -1.0000e+00
       22  1    1    2    0    0 -7.2706691040e+03 +2.9288137393e+03 +2.5311633108e+03 8.2369513077e+03 0.0000000000e+00 0.0000e+00 1.0000e+00
       22  1    1    2    0    0 +4.7788805691e+03 -1.9726732792e+03 -3.2314169915e+03 6.0968184435e+03 0.0000000000e+00 0.0000e+00 1.0000e+00
</event>
<event>
 6      1 +1.4834189e-01 1.11996500e+04 7.81653100e-03 6.87099000e-02
  1000022 -1    0    0    0    0 +0.0000000000e+00 +0.0000000000e+00 +4.4721471353e+01 1.0000100000e+04 1.0000000000e+04 0.0000e+00 -1.0000e+00
  1000022 -1    0    0    0    0 -0.0000000000e+00 -0.0000000000e+00 -4.4721471353e+01 1.0000100000e+04 1.0000000000e+04 0.0000e+00 -1.0000e+00
      -24  1    1    2    0    0 +6.5787694634e+03 +3.0745320397e+03 -4.9709486328e+03 8.8005487270e+03 7.9829010000e+01 0.0000e+00 -1.0000e+00
       24  1    1    2    0    0 -4.9633061625e+03 -4.7590588275e+03 +2.1389507131e+03 7.2017033965e+03 7.9829010000e+01 0.0000e+00 -1.0000e+00
       22  1    1    2    0    0 -1.9596019773e+01 -1.2364507607e+02 -1.2854232108e+02 1.7943031276e+02 0.0000000000e+00 0.0000e+00 1.0000e+00
       22  1    1    2    0    0 -1.5958672811e+03 +1.8081718639e+03 +2.9605402407e+03 3.8185175638e+03 0.0000000000e+00 0.0000e+00 1.0000e+00
</event>
<event>
 6      1 +1.4834189e-01 1.05029500e+04 7.81653100e-03 6.90922300e-02
  1000022 -1    0    0    0    0 +0.0000000000e+00 +0.0000000000e+00 +4.4721471353e+01 1.0000100000e+04 1.0000000000e+04 0.0000e+00 1.0000e+00
  1000022 -1    0    0    0    0 -0.0000000000e+00 -0.0000000000e+00 -4.4721471353e+01 1.0000100000e+04 1.0000000000e+04 0.0000e+00 1.0000e+00
      -24  1    1    2    0    0 +8.8584086243e+01 +2.8806109453e+02 -3.7226941281e+03 3.7357262448e+03 7.9829010000e+01 0.0000e+00 1.0000e+00
       24  1    1    2    0    0 +5.2167997272e+03 -4.8131018971e+02 +7.8972604833e+03 9.4773284582e+03 7.9829010000e+01 0.0000e+00 -1.0000e+00
       22  1    1    2    0    0 +1.7929929065e+01 +8.6755608540e+00 -4.1208405274e-01 1.9922789103e+01 0.0000000000e+00 0.0000e+00 1.0000e+00
       22  1    1    2    0    0 -5.3233137425e+03 +1.8457353433e+02 -4.1741542712e+03 6.7672225078e+03 0.0000000000e+00 0.0000e+00 -1.0000e+00
</event>
<event>
 6      1 +1.4834189e-01 1.00090700e+04 7.81653100e-03 6.93817800e-02
  1000022 -1    0    0    0    0 +0.0000000000e+00 +0.0000000000e+00 +4.4721471353e+01 1.0000100000e+04 1.0000000000e+04 0.0000e+00 1.0000e+00
  1000022 -1    0    0    0    0 -0.0000000000e+00 -0.0000000000e+00 -4.4721471353e+01 1.0000100000e+04 1.0000000000e+04 0.0000e+00 1.0000e+00
      -24  1    1    2    0    0 +1.7540867135e+03 -7.7082144742e+02 -2.1678174080e+03 2.8942686274e+03 7.9829010000e+01 0.0000e+00 0.0000e+00
       24  1    1    2    0    0 -5.1046267547e+03 +2.5331915971e+03 +6.3344907389e+03 8.5209400634e+03 7.9829010000e+01 0.0000e+00 1.0000e+00
       22  1    1    2    0    0 -1.0542494681e+03 +2.5758898437e+02 +1.0182074852e+03 1.4881332295e+03 0.0000000000e+00 0.0000e+00 1.0000e+00
       22  1    1    2    0    0 +4.4047895094e+03 -2.0199591340e+03 -5.1848808161e+03 7.0968580796e+03 0.0000000000e+00 0.0000e+00 1.0000e+00
</event>
<event>
 6      1 +1.4834189e-01 1.00193700e+04 7.81653100e-03 6.93755700e-02
  1000022 -1    0    0    0    0 +0.0000000000e+00 +0.0000000000e+00 +4.4721471353e+01 1.0000100000e+04 1.0000000000e+04 0.0000e+00 -1.0000e+00
  1000022 -1    0    0    0    0 -0.0000000000e+00 -0.0000000000e+00 -4.4721471353e+01 1.0000100000e+04 1.0000000000e+04 0.0000e+00 -1.0000e+00
      -24  1    1    2    0    0 -5.6085071447e+03 +1.2658006121e+03 -7.6519502808e+03 9.5716414137e+03 7.9829010000e+01 0.0000e+00 1.0000e+00
       24  1    1    2    0    0 +5.7770580123e+03 -1.0086274921e+03 +7.6722877618e+03 9.6572304966e+03 7.9829010000e+01 0.0000e+00 1.0000e+00
       22  1    1    2    0    0 +1.3292750277e+02 -2.2127232022e+02 +2.5399443427e+02 3.6213855543e+02 0.0000000000e+00 0.0000e+00 -1.0000e+00
       22  1    1    2    0    0 -3.0147837030e+02 -3.5900799865e+01 -2.7433191524e+02 4.0918953421e+02 0.0000000000e+00 0.0000e+00 1.0000e+00
</event>
<event>
 6      1 +1.4834189e-01 1.00004400e+04 7.81653100e-03 6.93869900e-02
  1000022 -1    0    0    0    0 +0.0000000000e+00 +0.0000000000e+00 +4.4721471353e+01 1.0000100000e+04 1.0000000000e+04 0.0000e+00 -1.0000e+00
  1000022 -1    0    0    0    0 -0.0000000000e+00 -0.0000000000e+00 -4.4721471353e+01 1.0000100000e+04 1.0000000000e+04 0.0000e+00 -1.0000e+00
      -24  1    1    2    0    0 +4.1839861327e+03 -6.6485644134e+03 +5.3765665421e+03 9.5196107677e+03 7.9829010000e+01 0.0000e+00 -1.0000e+00
       24  1    1    2    0    0 -4.4065359442e+03 +6.9721590301e+03 -5.6264752777e+03 9.9845960003e+03 7.9829010000e+01 0.0000e+00 -1.0000e+00
       22  1    1    2    0    0 -2.4039866585e+00 +1.0105057482e+01 -1.1969111131e+01 1.5847743052e+01 0.0000000000e+00 0.0000e+00 1.0000e+00
       22  1    1    2    0    0 +2.2495379817e+02 -3.3369967424e+02 +2.6187784672e+02 4.8014548888e+02 0.0000000000e+00 0.0000e+00 1.0000e+00
</event>
<event>
 6      1 +1.4834189e-01 1.00030600e+04 7.81653100e-03 6.93854000e-02
  1000022 -1    0    0    0    0 +0.0000000000e+00 +0.0000000000e+00 +4.4721471353e+01 1.0000100000e+04 1.0000000000e+04 0.0000e+00 -1.0000e+00
  1000022 -1    0    0    0    0 -0.0000000000e+00 -0.0000000000e+00 -4.4721471353e+01 1.0000100000e+04 1.0000000000e+04 0.0000e+00 -1.0000e+00
      -24  1    1    2    0    0 -3.8907197796e+03 +5.4345837644e+03 +3.8693630123e+03 7.7233894041e+03 7.9829010000e+01 0.0000e+00 1.0000e+00
       24  1    1    2    0    0 +1.3245509179e+03 -1.7354925876e+03 -1.2560472384e+03 2.5199994031e+03 7.9829010000e+01 0.0000e+00 0.0000e+00
       22  1    1    2    0    0 +3.8569718780e+03 -5.2979927447e+03 -3.6003618032e+03 7.4771361031e+03 0.0000000000e+00 0.0000e+00 1.0000e+00
       22  1    1    2    0    0 -1.2908030163e+03 +1.5989015680e+03 +9.8704602923e+02 2.2796750897e+03 0.0000000000e+00 0.0000e+00 1.0000e+00
</event>
<event>
 6      1 +1.4834189e-01 1.00021800e+04 7.81653100e-03 6.93859400e-02
  1000022 -1    0    0    0    0 +0.0000000000e+00 +0.0000000000e+00 +4.4721471353e+01 1.0000100000e+04 1.0000000000e+04 0.0000e+00 -1.0000e+00
  1000022 -1    0    0    0    0 -0.0000000000e+00 -0.0000000000e+00 -4.4721471353e+01 1.0000100000e+04 1.0000000000e+04 0.0000e+00 -1.0000e+00
      -24  1    1    2    0    0 -3.6716080079e+03 +1.5189068333e+03 +8.7251374290e+03 9.5876054966e+03 7.9829010000e+01 0.0000e+00 -1.0000e+00
       24  1    1    2    0    0 +3.7307831879e+03 -1.5373058161e+03 -8.9074498285e+03 9.7791148621e+03 7.9829010000e+01 0.0000e+00 -1.0000e+00
       22  1    1    2    0    0 +9.6018865627e+01 -8.0604697974e+01 -1.8450266797e+02 2.2306495552e+02 0.0000000000e+00 0.0000e+00 1.0000e+00
       22  1    1    2    0    0 -1.5519404562e+02 +9.9003680764e+01 +3.6681506749e+02 4.1041468582e+02 0.0000000000e+00 0.0000e+00 1.0000e+00
</event>
<event>
 6      1 +1.4834189e-01 1.00049300e+04 7.81653100e-03 6.93842800e-02
  1000022 -1    0    0    0    0 +0.0000000000e+00 +0.0000000000e+00 +4.4721471353e+01 1.0000100000e+04 1.0000000000e+04 0.0000e+00 1.0000e+00
  1000022 -1    0    0    0    0 -0.0000000000e+00 -0.0000000000e+00 -4.4721471353e+01 1.0000100000e+04 1.0000000000e+04 0.0000e+00 1.0000e+00
      -24  1    1    2    0    0 +6.8714816875e+03 +3.3419976575e+03 -6.2189082767e+03 9.8522790130e+03 7.9829010000e+01 0.0000e+00 1.0000e+00
       24  1    1    2    0    0 -4.7047349803e+02 -2.9919195529e+02 +5.3723977535e+02 7.7837033956e+02 7.9829010000e+01 0.0000e+00 -1.0000e+00
       22  1    1    2    0    0 -6.5022469755e+03 -3.0856677944e+03 +5.7731074701e+03 9.2265557674e+03 0.0000000000e+00 0.0000e+00 1.0000e+00
       22  1    1    2    0    0 +1.0123878600e+02 +4.2862092162e+01 -9.1438968677e+01 1.4299488007e+02 0.0000000000e+00 0.0000e+00 1.0000e+00
</event>
<event>
 6      1 +1.4834189e-01 1.01657800e+04 7.81653100e-03 6.92881100e-02
  1000022 -1    0    0    0    0 +0.0000000000e+00 +0.0000000000e+00 +4.4721471353e+01 1.0000100000e+04 1.0000000000e+04 0.0000e+00 -1.0000e+00
  1000022 -1    0    0    0    0 -0.0000000000e+00 -0.0000000000e+00 -4.4721471353e+01 1.0000100000e+04 1.0000000000e+04 0.0000e+00 -1.0000e+00
      -24  1    1    2    0    0 -8.4264321612e+03 -2.1888782771e+03 -4.5731237218e+03 9.8344181487e+03 7.9829010000e+01 0.0000e+00 1.0000e+00
       24  1    1    2    0    0 +9.0914302838e+02 +1.2458745762e+02 +7.4499989649e+01 9.2411362935e+02 7.9829010000e+01 0.0000e+00 1.0000e+00
       22  1    1    2    0    0 +2.3242331831e+02 +8.8724807725e+01 -2.2669041879e+02 3.3657278020e+02 0.0000000000e+00 0.0000e+00 1.0000e+00
       22  1    1    2    0    0 +7.2848658145e+03 +1.9755660117e+03 +4.7253141509e+03 8.9050954417e+03 0.0000000000e+00 0.0000e+00 1.0000e+00
</event>
<event>
 6      1 +1.4834189e-01 1.00014400e+04 7.81653100e-03 6.93863900e-02
  1000022 -1    0    0    0    0 +0.0000000000e+00 +0.0000000000e+00 +4.4721471353e+01 1.0000100000e+04 1.0000000000e+04 0.0000e+00 -1.0000e+00
  1000022 -1    0    0    0    0 -0.0000000000e+00 -0.0000000000e+00 -4.4721471353e+01 1.0000100000e+04 1.0000000000e+04 0.0000e+00 -1.0000e+00
      -24  1    1    2    0    0 +9.5075390839e+03 +1.4379181082e+03 +2.2577246735e+03 9.8774795009e+03 7.9829010000e+01 0.0000e+00 -1.0000e+00
       24  1    1    2    0    0 -1.0644905575e+03 -1.7663841539e+02 -2.6692220686e+02 1.1144332247e+03 7.9829010000e+01 0.0000e+00 0.0000e+00
       22  1    1    2    0    0 +1.1621272555e+02 +1.5139309245e+01 +3.1230683313e+01 1.2128459030e+02 0.0000000000e+00 0.0000e+00 1.0000e+00
       22  1    1    2    0    0 -8.5592612519e+03 -1.2764190021e+03 -2.0220331500e+03 8.8870026841e+03 0.0000000000e+00 0.0000e+00 -1.0000e+00
</event>
<event>
 6      1 +1.4834189e-01 1.00052300e+04 7.81653100e-03 6.93841000e-02
  1000022 -1    0    0    0    0 +0.0000000000e+00 +0.0000000000e+00 +4.4721471353e+01 1.0000100000e+04 1.0000000000e+04 0.0000e+00 -1.0000e+00
  1000022 -1    0    0    0    0 -0.0000000000e+00 -0.0000000000e+00 -4.4721471353e+01 1.0000100000e+04 1.0000000000e+04 0.0000e+00 -1.0000e+00
      -24  1    1    2    0    0 +3.3209057058e+03 +5.2920525760e+03 -7.7375120716e+03 9.9453356355e+03 7.9829010000e+01 0.0000e+00 1.0000e+00
       24  1    1    2    0    0 -2.9021196911e+03 -5.0080560668e+03 +7.3330484289e+03 9.3425315735e+03 7.9829010000e+01 0.0000e+00 1.0000e+00
       22  1    1    2    0    0 -6.2478921166e+00 +4.8784777295e+01 +6.6707376378e+00 4.9633551075e+01 0.0000000000e+00 0.0000e+00 -1.0000e+00
       22  1    1    2    0    0 -4.1253812258e+02 -3.3278128654e+02 +3.9779290504e+02 6.6269923989e+02 0.0000000000e+00 0.0000e+00 -1.0000e+00
</event>
<event>
 6      1 +1.4834189e-01 1.00939000e+04 7.81653100e-03 6.93308700e-02
  1000022 -1    0    0    0    0 +0.0000000000e+00 +0.0000000000e+00 +4.4721471353e+01 1.0000100000e+04 1.0000000000e+04 0.0000e+00 1.0000e+00
  1000022 -1    0    0    0    0 -0.0000000000e+00 -0.0000000000e+00 -4.4721471353e+01 1.0000100000e+04 1.0000000000e+04 0.0000e+00 1.0000e+00
      -24  1    1    2    0    0 +6.3454054597e+01 +4.7713950663e+01 +9.6166421723e-01 1.1259055808e+02 7.9829010000e+01 0.0000e+00 -1.0000e+00
       24  1    1    2    0    0 -6.5016487408e+02 -1.5519189105e+03 -1.4607436173e+03 2.2296437506e+03 7.9829010000e+01 0.0000e+00 -1.0000e+00
       22  1    1    2    0    0 -5.4886276128e+03 -4.8793499094e+03 -2.8130741335e+03 7.8642529646e+03 0.0000000000e+00 0.0000e+00 -1.0000e+00
       22  1    1    2    0    0 +6.0753384323e+03 +6.3835548693e+03 +4.2728560866e+03 9.7937127267e+03 0.0000000000e+00 0.0000e+00 -1.0000e+00
</event>
<event>
 6      1 +1.4834189e-01 1.14134300e+04 7.81653100e-03 6.85981600e-02
  1000022 -1    0    0    0    0 +0.0000000000e+00 +0.0000000000e+00 +4.4721471353e+01 1.0000100000e+04 1.0000000000e+04 0.0000e+00 -1.0000e+00
  1000022 -1    0    0    0    0 -0.0000000000e+00 -0.0000000000e+00 -4.4721471353e+01 1.0000100000e+04 1.0000000000e+04 0.0000e+00 -1.0000e+00
      -24  1    1    2    0    0 -5.2449008182e+03 +6.7978127802e+03 -8.3367879191e+01 8.5867669155e+03 7.9829010000e+01 0.0000e+00 1.0000e+00
       24  1    1    2    0    0 +3.8905445505e+03 -6.8821905310e+03 -2.6204802146e+03 8.3291159573e+03 7.9829010000e+01 0.0000e+00 1.0000e+00
       22  1    1    2    0    0 +1.3325394745e+03 +1.2691347874e+02 +2.7218871717e+03 3.0332224215e+03 0.0000000000e+00 0.0000e+00 1.0000e+00
       22  1    1    2    0    0 +2.1816793251e+01 -4.2535727984e+01 -1.8039077954e+01 5.1094705756e+01 0.0000000000e+00 0.0000e+00 -1.0000e+00
</event>
<event>
 6      1 +1.4834189e-01 1.00011100e+04 7.81653100e-03 6.93865900e-02
  1000022 -1    0    0    0    0 +0.0000000000e+00 +0.0000000000e+00 +4.4721471353e+01 1.0000100000e+04 1.0000000000e+04 0.0000e+00 1.0000e+00
  1000022 -1    0    0    0    0 -0.0000000000e+00 -0.0000000000e+00 -4.4721471353e+01 1.0000100000e+04 1.0000000000e+04 0.0000e+00 1.0000e+00
      -24  1    1    2    0    0 -6.7872257306e+03 -4.3921229786e+03 +5.8313837242e+03 9.9683793160e+03 7.9829010000e+01 0.0000e+00 -1.0000e+00
       24  1    1    2    0    0 +6.7271301503e+03 +4.3392307782e+03 -5.7816760910e+03 9.8750875893e+03 7.9829010000e+01 0.0000e+00 -1.0000e+00
       22  1    1    2    0    0 +8.6257376742e+01 +5.6266853774e+01 -6.9076294527e+01 1.2400737213e+02 0.0000000000e+00 0.0000e+00 1.0000e+00
       22  1    1    2    0    0 -2.6161796366e+01 -3.3746534206e+00 +1.9368661331e+01 3.2725722552e+01 0.0000000000e+00 0.0000e+00 -1.0000e+00
</event>
<event>
 6      1 +1.4834189e-01 1.00225000e+04 7.81653100e-03 6.93736900e-02
  1000022 -1    0    0    0    0 +0.0000000000e+00 +0.0000000000e+00 +4.4721471353e+01 1.0000100000e+04 1.0000000000e+04 0.0000e+00 -1.0000e+00
  1000022 -1    0    0    0    0 -0.0000000000e+00 -0.0000000000e+00 -4.4721471353e+01 1.0000100000e+04 1.0000000000e+04 0.0000e+00 -1.0000e+00
      -24  1    1    2    0    0 -8.9998096975e+03 +7.3026266812e+02 -4.2447998608e+03 9.9777029764e+03 7.9829010000e+01 0.0000e+00 -1.0000e+00
       24  1    1    2    0    0 +7.9701598131e+03 -5.3241943073e+02 +4.0447135849e+03 8.9539376003e+03 7.9829010000e+01 0.0000e+00 -1.0000e+00
       22  1    1    2    0    0 +1.0153952367e+03 -2.0031235907e+02 +1.9468255187e+02 1.0531162443e+03 0.0000000000e+00 0.0000e+00 -1.0000e+00
       22  1    1    2    0    0 +1.4254647750e+01 +2.4691216795e+00 +5.4037239961e+00 1.5443178992e+01 0.0000000000e+00 0.0000e+00 1.0000e+00
</event>
<event>
 6      1 +1.4834189e-01 1.00886100e+04 7.81653100e-03 6.93340200e-02
  1000022 -1    0    0    0    0 +0.0000000000e+00 +0.0000000000e+00 +4.4721471353e+01 1.0000100000e+04 1.0000000000e+04 0.0000e+00 -1.0000e+00
  1000022 -1    0    0    0    0 -0.0000000000e+00 -0.0000000000e+00 -4.4721471353e+01 1.0000100000e+04 1.0000000000e+04 0.0000e+00 -1.0000e+00
      -24  1    1    2    0    0 +4.6932224636e+03 +3.8279661506e+03 -6.6223487110e+03 8.9744936940e+03 7.9829010000e+01 0.0000e+00 -1.0000e+00
       24  1    1    2    0    0 -4.0860207557e+03 -3.6957808433e+03 +6.8294320248e+03 8.7750712880e+03 7.9829010000e+01 0.0000e+00 -1.0000e+00
       22  1    1    2    0    0 +4.9167927847e+02 +4.0241197153e+02 -6.8880951431e+02 9.3709255397e+02 0.0000000000e+00 0.0000e+00 -1.0000e+00
       22  1    1    2    0    0 -1.0988809863e+03 -5.3459727883e+02 +4.8172620054e+02 1.3135424641e+03 0.0000000000e+00 0.0000e+00 -1.0000e+00
</event>
<event>
 6      1 +1.4834189e-01 1.00023100e+04 7.81653100e-03 6.93858600e-02
  1000022 -1    0    0    0    0 +0.0000000000e+00 +0.0000000000e+00 +4.4721471353e+01 1.0000100000e+04 1.0000000000e+04 0.0000e+00 1.0000e+00
  1000022 -1    0    0    0    0 -0.0000000000e+00 -0.0000000000e+00 -4.4721471353e+01 1.0000100000e+04 1.0000000000e+04 0.0000e+00 1.0000e+00
      -24  1    1    2    0    0 +8.8883739425e+03 -4.4604799130e+03 +8.3812743202e+01 9.9454748325e+03 7.9829010000e+01 0.0000e+00 -1.0000e+00
       24  1    1    2    0    0 -8.8736534434e+03 +4.4549584710e+03 -6.1746874439e+01 9.9296810503e+03 7.9829010000e+01 0.0000e+00 -1.0000e+00
       22  1    1    2    0    0 -6.2102783876e+01 +2.8202812884e+01 -3.6669736202e-01 6.8207689351e+01 0.0000000000e+00 0.0000e+00 1.0000e+00
       22  1    1    2    0    0 +4.7382284775e+01 -2.2681370888e+01 -2.1699171401e+01 5.6836427890e+01 0.0000000000e+00 0.0000e+00 -1.0000e+00
</event>
<event>
 6      1 +1.4834189e-01 1.00071500e+04 7.81653100e-03 6.93829400e-02
  1000022 -1    0    0    0    0 +0.0000000000e+00 +0.0000000000e+00 +4.4721471353e+01 1.0000100000e+04 1.0000000000e+04 0.0000e+00 -1.0000e+00
  1000022 -1    0    0    0    0 -0.0000000000e+00 -0.0000000000e+00 -4.4721471353e+01 1.0000100000e+04 1.0000000000e+04 0.0000e+00 -1.0000e+00
      -24  1    1    2    0    0 -4.3461121801e+03 -8.8117433931e+03 -1.8218404496e+03 9.9930469829e+03 7.9829010000e+01 0.0000e+00 1.0000e+00
       24  1    1    2    0    0 +4.3125196612e+03 +8.6785395283e+03 +1.7922836753e+03 9.8556343081e+03 7.9829010000e+01 0.0000e+00 1.0000e+00
       22  1    1    2    0    0 +4.5839510434e+01 +7.1619538561e+01 +2.4665770428e+01 8.8538236098e+01 0.0000000000e+00 0.0000e+00 -1.0000e+00
       22  1    1    2    0    0 -1.2246991589e+01 +6.1584326264e+01 +4.8910038484e+00 6.2980472871e+01 0.0000000000e+00 0.0000e+00 -1.0000e+00
</event>
<event>
 6      1 +1.4834189e-01 1.00007800e+04 7.81653100e-03 6.93867800e-02
  1000022 -1    0    0    0    0 +0.0000000000e+00 +0.0000000000e+00 +4.4721471353e+01 1.0000100000e+04 1.0000000000e+04 0.0000e+00 1.0000e+00
  1000022 -1    0    0    0    0 -0.0000000000e+00 -0.0000000000e+00 -4.4721471353e+01 1.0000100000e+04 1.0000000000e+04 0.0000e+00 1.0000e+00
      -24  1    1    2    0    0 +9.3524584213e+03 +1.2482000221e+03 +3.2573439557e+03 9.9821412600e+03 7.9829010000e+01 0.0000e+00 1.0000e+00
       24  1    1    2    0    0 -1.9504592983e+03 -2.8294342368e+02 -6.7589428138e+02 2.0850789448e+03 7.9829010000e+01 0.0000e+00 -1.0000e+00
       22  1    1    2    0    0 -7.4180482018e+03 -9.6701364488e+02 -2.5876116655e+03 7.9156988728e+03 0.0000000000e+00 0.0000e+00 1.0000e+00
       22  1    1    2    0    0 +1.6049078811e+01 +1.7570464715e+00 +6.1619912352e+00 1.7280922399e+01 0.0000000000e+00 0.0000e+00 1.0000e+00
</event>
<event>
 6      1 +1.4834189e-01 8.43218600e+03 7.81653100e-03 7.04326900e-02
  1000022 -1    0    0    0    0 +0.0000000000e+00 +0.0000000000e+00 +4.4721471353e+01 1.0000100000e+04 1.0000000000e+04 0.0000e+00 -1.0000e+00
  1000022 -1    0    0    0    0 -0.0000000000e+00 -0.0000000000e+00 -4.4721471353e+01 1.0000100000e+04 1.0000000000e+04 0.0000e+00 -1.0000e+00
      -24  1    1    2    0    0 -2.3276410518e+01 -6.3133052058e+01 +3.2999484107e+02 3.4611680040e+02 7.9829010000e+01 0.0000e+00 -1.0000e+00
       24  1    1    2    0    0 -2.6679037046e+03 +8.2546895458e+02 +1.1225380147e+03 3.0109090716e+03 7.9829010000e+01 0.0000e+00 -1.0000e+00
       22  1    1    2    0    0 +7.8844111638e+03 -3.2220951602e+03 -5.0130986514e+03 9.8831672408e+03 0.0000000000e+00 0.0000e+00 1.0000e+00
       22  1    1    2    0    0 -5.1932310486e+03 +2.4597592577e+03 +3.5605657956e+03 6.7600068872e+03 0.0000000000e+00 0.0000e+00 1.0000e+00
</event>
<event>
 6      1 +1.4834189e-01 1.00041500e+04 7.81653100e-03 6.93847500e-02
  1000022 -1    0    0    0    0 +0.0000000000e+00 +0.0000000000e+00 +4.4721471353e+01 1.0000100000e+04 1.0000000000e+04 0.0000e+00 -1.0000e+00
  1000022 -1    0    0    0    0 -0.0000000000e+00 -0.0000000000e+00 -4.4721471353e+01 1.0000100000e+04 1.0000000000e+04 0.0000e+00 -1.0000e+00
      -24  1    1    2    0    0 -3.1606358654e+02 -1.0737595594e+03 -1.2057474657e+03 1.6471355148e+03 7.9829010000e+01 0.0000e+00 -1.0000e+00
       24  1    1    2    0    0 +1.1318048491e+03 +5.0783364324e+03 +6.4404045388e+03 8.2798349278e+03 7.9829010000e+01 0.0000e+00 1.0000e+00
       22  1    1    2    0    0 +2.3774189081e+02 +1.0169407812e+03 +1.3618747652e+03 1.7162146238e+03 0.0000000000e+00 0.0000e+00 1.0000e+00
       22  1    1    2    0    0 -1.0534831534e+03 -5.0215176542e+03 -6.5965318383e+03 8.3570149335e+03 0.0000000000e+00 0.0000e+00 1.0000e+00
</event>
<event>
 6      1 +1.4834189e-01 1.00049400e+04 7.81653100e-03 6.93842800e-02
  1000022 -1    0    0    0    0 +0.0000000000e+00 +0.0000000000e+00 +4.4721471353e+01 1.0000100000e+04 1.0000000000e+04 0.0000e+00 -1.0000e+00
  1000022 -1    0    0    0    0 -0.0000000000e+00 -0.0000000000e+00 -4.4721471353e+01 1.0000100000e+04 1.0000000000e+04 0.0000e+00 -1.0000e+00
      -24  1    1    2    0    0 +6.4797319037e+03 -5.1727889053e+02 +7.2923139510e+03 9.7692742016e+03 7.9829010000e+01 0.0000e+00 -1.0000e+00
       24  1    1    2    0    0 -6.5658195160e+03 +4.9817076115e+02 -7.4947245576e+03 9.9767444034e+03 7.9829010000e+01 0.0000e+00 -1.0000e+00
       22  1    1    2    0    0 +1.0177355802e+02 +1.6515974310e+01 +2.1190940489e+02 2.3566126198e+02 0.0000000000e+00 0.0000e+00 -1.0000e+00
       22  1    1    2    0    0 -1.5685945712e+01 +2.5921550718e+00 -9.4987982610e+00 1.8520133077e+01 0.0000000000e+00 0.0000e+00 1.0000e+00
</event>
<event>
 6      1 +1.4834189e-01 1.00033700e+04 7.81653100e-03 6.93852200e-02
  1000022 -1    0    0    0    0 +0.0000000000e+00 +0.0000000000e+00 +4.4721471353e+01 1.0000100000e+04 1.0000000000e+04 0.0000e+00 -1.0000e+00
  1000022 -1    0    0    0    0 -0.0000000000e+00 -0.0000000000e+00 -4.4721471353e+01 1.0000100000e+04 1.0000000000e+04 0.0000e+00 -1.0000e+00
      -24  1    1    2    0    0 +1.2119940838e+03 +2.5038270359e+03 -9.3023297401e+02 2.9342436064e+03 7.9829010000e+01 0.0000e+00 1.0000e+00
       24  1    1    2    0    0 -2.8757647142e+03 -6.0826339176e+03 +2.2241067381e+03 7.0867116154e+03 7.9829010000e+01 0.0000e+00 -1.0000e+00
       22  1    1    2    0    0 +2.5930190636e+03 +6.2076342045e+03 -2.1498164520e+03 7.0625902513e+03 0.0000000000e+00 0.0000e+00 -1.0000e+00
       22  1    1    2    0    0 -9.2924843324e+02 -2.6288273228e+03 +8.5594268793e+02 2.9166545269e+03 0.0000000000e+00 0.0000e+00 -1.0000e+00
</event>
<event>
 6      1 +1.4834189e-01 1.00006800e+04 7.81653100e-03 6.93868400e-02
  1000022 -1    0    0    0    0 +0.0000000000e+00 +0.0000000000e+00 +4.4721471353e+01 1.0000100000e+04 1.0000000000e+04 0.0000e+00 1.0000e+00
  1000022 -1    0    0    0    0 -0.0000000000e+00 -0.0000000000e+00 -4.4721471353e+01 1.0000100000e+04 1.0000000000e+04 0.0000e+00 1.0000e+00
      -24  1    1    2    0    0 -7.1493023280e+03 -7.1997007948e+02 +6.6321420854e+03 9.7786789498e+03 7.9829010000e+01 0.0000e+00 1.0000e+00
       24  1    1    2    0    0 +7.3003928387e+03 +7.2078097665e+02 -6.7546533079e+03 9.9723104041e+03 7.9829010000e+01 0.0000e+00 1.0000e+00
       22  1    1    2    0    0 +1.3158789452e+01 -1.1865840008e+00 -2.5108401705e+01 2.8372408386e+01 0.0000000000e+00 0.0000e+00 1.0000e+00
       22  1    1    2    0    0 -1.6424930022e+02 +3.7568682621e-01 +1.4761962415e+02 2.2083823762e+02 0.0000000000e+00 0.0000e+00 1.0000e+00
</event>
<event>
 6      1 +1.4834189e-01 1.00005400e+04 7.81653100e-03 6.93869300e-02
  1000022 -1    0    0    0    0 +0.0000000000e+00 +0.0000000000e+00 +4.4721471353e+01 1.0000100000e+04 1.0000000000e+04 0.0000e+00 -1.0000e+00
  1000022 -1    0    0    0    0 -0.0000000000e+00 -0.0000000000e+00 -4.4721471353e+01 1.0000100000e+04 1.0000000000e+04 0.0000e+00 -1.0000e+00
      -24  1    1    2    0    0 +8.1359557389e+03 +1.6818592316e+03 +4.2514554630e+03 9.3329348270e+03 7.9829010000e+01 0.0000e+00 -1.0000e+00
       24  1    1    2    0    0 -7.1096529277e+03 -1.4988720910e+03 -3.6692167903e+03 8.1402276887e+03 7.9829010000e+01 0.0000e+00 -1.0000e+00
       22  1    1    2    0    0 -1.6066468551e+03 -3.0730380432e+02 -8.8600278318e+02 1.8603092960e+03 0.0000000000e+00 0.0000e+00 -1.0000e+00
       22  1    1    2    0    0 +5.8034404396e+02 +1.2431666377e+02 +3.0376411046e+02 6.6672818828e+02 0.0000000000e+00 0.0000e+00 -1.0000e+00
</event>
<event>
 6      1 +1.4834189e-01 1.00020600e+04 7.81653100e-03 6.93860100e-02
  1000022 -1    0    0    0    0 +0.0000000000e+00 +0.0000000000e+00 +4.4721471353e+01 1.0000100000e+04 1.0000000000e+04 0.0000e+00 1.0000e+00
  1000022 -1    0    0    0    0 -0.0000000000e+00 -0.0000000000e+00 -4.4721471353e+01 1.0000100000e+04 1.0000000000e+04 0.0000e+00 1.0000e+00
      -24  1    1    2    0    0 -4.4489334648e+03 +1.0337509413e+03 -1.6144479215e+02 4.5710050399e+03 7.9829010000e+01 0.0000e+00 1.0000e+00
       24  1    1    2    0    0 +9.5275486353e+03 -2.3759840158e+03 +6.4824204680e+02 9.8410402633e+03 7.9829010000e+01 0.0000e+00 1.0000e+00
       22  1    1    2    0    0 +1.3379473728e+02 -8.9552627823e+01 -2.4548336859e+00 1.6101779741e+02 0.0000000000e+00 0.0000e+00 1.0000e+00
       22  1    1    2    0    0 -5.2124099078e+03 +1.4317857023e+03 -4.8434242096e+02 5.4271368994e+03 0.0000000000e+00 0.0000e+00 1.0000e+00
</event>
<event>
 6      1 +1.4834189e-01 1.00166400e+04 7.81653100e-03 6.93772200e-02
  1000022 -1    0    0    0    0 +0.0000000000e+00 +0.0000000000e+00 +4.4721471353e+01 1.0000100000e+04 1.0000000000e+04 0.0000e+00 -1.0000e+00
  1000022 -1    0    0    0    0 -0.0000000000e+00 -0.0000000000e+00 -4.4721471353e+01 1.0000100000e+04 1.0000000000e+04 0.0000e+00 -1.0000e+00
      -24  1    1    2    0    0 +1.9156615118e+03 +9.4914783846e+03 +1.9154684135e+03 9.8708314172e+03 7.9829010000e+01 0.0000e+00 1.0000e+00
       24  1    1    2    0    0 -1.3176338000e+03 -6.7142465356e+03 -9.6422124265e+02 6.9103806442e+03 7.9829010000e+01 0.0000e+00 1.0000e+00
       22  1    1    2    0    0 -5.9813600241e+02 -2.8859944766e+03 -9.8087980527e+02 3.1062607728e+03 0.0000000000e+00 0.0000e+00 -1.0000e+00
       22  1    1    2    0    0 +1.0829059278e-01 +1.0876262759e+02 +2.9632634421e+01 1.1272716580e+02 0.0000000000e+00 0.0000e+00 -1.0000e+00
</event>
<event>
 6      1 +1.4834189e-01 1.00358900e+04 7.81653100e-03 6.93656300e-02
  1000022 -1    0    0    0    0 +0.0000000000e+00 +0.0000000000e+00 +4.4721471353e+01 1.0000100000e+04 1.0000000000e+04 0.0000e+00 1.0000e+00
  1000022 -1    0    0    0    0 -0.0000000000e+00 -0.0000000000e+00 -4.4721471353e+01 1.0000100000e+04 1.0000000000e+04 0.0000e+00 1.0000e+00
      -24  1    1    2    0    0 +3.5628511583e+03 -1.3442464935e+02 +7.5921121692e+03 8.3879984634e+03 7.9829010000e+01 0.0000e+00 -1.0000e+00
       24  1    1    2    0    0 -4.5204189963e+03 -8.8482616164e+01 -8.8791359560e+03 9.9643085596e+03 7.9829010000e+01 0.0000e+00 -1.0000e+00
       22  1    1    2    0    0 +1.1292348983e+01 -2.6080919280e+01 -3.1997474599e+00 2.8600172724e+01 0.0000000000e+00 0.0000e+00 1.0000e+00
       22  1    1    2    0    0 +9.4627548905e+02 +2.4898818479e+02 +1.2902235343e+03 1.6192928042e+03 0.0000000000e+00 0.0000e+00 1.0000e+00
</event>
<event>
 6      1 +1.4834189e-01 1.00310600e+04 7.81653100e-03 6.93685400e-02
  1000022 -1    0    0    0    0 +0.0000000000e+00 +0.0000000000e+00 +4.4721471353e+01 1.0000100000e+04 1.0000000000e+04 0.0000e+00 -1.0000e+00
  1000022 -1    0    0    0    0 -0.0000000000e+00 -0.0000000000e+00 -4.4721471353e+01 1.0000100000e+04 1.0000000000e+04 0.0000e+00 -1.0000e+00
      -24  1    1    2    0    0 +3.2075740293e+02 -3.2441457915e+02 +1.6379251281e+02 4.9125430155e+02 7.9829010000e+01 0.0000e+00 -1.0000e+00
       24  1    1    2    0    0 -7.0862761221e+02 +5.8298439461e+03 -2.4903692769e+03 6.3794627779e+03 7.9829010000e+01 0.0000e+00 -1.0000e+00
       22  1    1    2    0    0 +2.9379234447e+02 -8.1286665866e+03 +4.8650635120e+03 9.4778888680e+03 0.0000000000e+00 0.0000e+00 -1.0000e+00
       22  1    1    2    0    0 +9.4077864800e+01 +2.6232372197e+03 -2.5384867480e+03 3.6515940526e+03 0.0000000000e+00 0.0000e+00 -1.0000e+00
</event>
<event>
 6      1 +1.4834189e-01 1.01183100e+04 7.81653100e-03 6.93163100e-02
  1000022 -1    0    0    0    0 +0.0000000000e+00 +0.0000000000e+00 +4.4721471353e+01 1.0000100000e+04 1.0000000000e+04 0.0000e+00 1.0000e+00
  1000022 -1    0    0    0    0 -0.0000000000e+00 -0.0000000000e+00 -4.4721471353e+01 1.0000100000e+04 1.0000000000e+04 0.0000e+00 1.0000e+00
      -24  1    1    2    0    0 -9.4726313312e+03 -1.4306723951e+03 +2.0977092027e+03 9.8073607260e+03 7.9829010000e+01 0.0000e+00 1.0000e+00
       24  1    1    2    0    0 +9.5940433557e+03 +1.2603126673e+03 -2.0028233635e+03 9.8818889908e+03 7.9829010000e+01 0.0000e+00 1.0000e+00
       22  1    1    2    0    0 -6.9660363846e+01 +1.7094342161e+02 +1.9284874390e+01 1.8559667579e+02 0.0000000000e+00 0.0000e+00 -1.0000e+00
       22  1    1    2    0    0 -5.1751660577e+01 -5.8369383027e-01 -1.1417071354e+02 1.2535360745e+02 0.0000000000e+00 0.0000e+00 -1.0000e+00
</event>
<event>
 6      1 +1.4834189e-01 1.07136200e+04 7.81653100e-03 6.89735400e-02
  1000022 -1    0    0    0    0 +0.0000000000e+00 +0.0000000000e+00 +4.4721471353e+01 1.0000100000e+04 1.0000000000e+04 0.0000e+00 -1.0000e+00
  1000022 -1    0    0    0    0 -0.0000000000e+00 -0.0000000000e+00 -4.4721471353e+01 1.0000100000e+04 1.0000000000e+04 0.0000e+00 -1.0000e+00
      -24  1    1    2    0    0 -5.7874010286e+03 +2.9266780343e+03 -6.2233554275e+03 8.9886584333e+03 7.9829010000e+01 0.0000e+00 1.0000e+00
       24  1    1    2    0    0 +6.0359463695e+03 -3.9282510093e+03 +4.8705708357e+03 8.6944026537e+03 7.9829010000e+01 0.0000e+00 1.0000e+00
       22  1    1    2    0    0 +3.9523510855e+02 -2.5397733903e+02 +3.6049488619e+02 5.9217551684e+02 0.0000000000e+00 0.0000e+00 -1.0000e+00
       22  1    1    2    0    0 -6.4378044942e+02 +1.2555503141e+03 +9.9228970562e+02 1.7249633962e+03 0.0000000000e+00 0.0000e+00 1.0000e+00
</event>
<event>
 6      1 +1.4834189e-01 1.01190500e+04 7.81653100e-03 6.93158700e-02
  1000022 -1    0    0    0    0 +0.0000000000e+00 +0.0000000000e+00 +4.4721471353e+01 1.0000100000e+04 1.0000000000e+04 0.0000e+00 -1.0000e+00
  1000022 -1    0    0    0    0 -0.0000000000e+00 -0.0000000000e+00 -4.4721471353e+01 1.0000100000e+04 1.0000000000e+04 0.0000e+00 -1.0000e+00
      -24  1    1    2    0    0 +3.6064207322e+03 +8.7300299256e+03 +2.6660943911e+03 9.8149949044e+03 7.9829010000e+01 0.0000e+00 -1.0000e+00
       24  1    1    2    0    0 -3.8077662541e+03 -8.6173007760e+03 -2.4679487496e+03 9.7393069677e+03 7.9829010000e+01 0.0000e+00 -1.0000e+00
       22  1    1    2    0    0 -5.2749983497e+01 -1.2776285860e+02 -3.1835596511e+01 1.4184292017e+02 0.0000000000e+00 0.0000e+00 1.0000e+00
       22  1    1    2    0    0 +2.5409550540e+02 +1.5033708984e+01 -1.6631004506e+02 3.0405520774e+02 0.0000000000e+00 0.0000e+00 -1.0000e+00
</event>
<event>
 6      1 +1.4834189e-01 1.00642700e+04 7.81653100e-03 6.93485900e-02
  1000022 -1    0    0    0    0 +0.0000000000e+00 +0.0000000000e+00 +4.4721471353e+01 1.0000100000e+04 1.0000000000e+04 0.0000e+00 -1.0000e+00
  1000022 -1    0    0    0    0 -0.0000000000e+00 -0.0000000000e+00 -4.4721471353e+01 1.0000100000e+04 1.0000000000e+04 0.0000e+00 -1.0000e+00
      -24  1    1    2    0    0 +8.1357546523e+01 +3.8430081415e+01 -9.6519415333e+01 1.5422253372e+02 7.9829010000e+01 0.0000e+00 -1.0000e+00
       24  1    1    2    0    0 -3.8769428282e+03 +2.3056036242e+03 +8.7671453262e+03 9.8598024121e+03 7.9829010000e+01 0.0000e+00 1.0000e+00
       22  1    1    2    0    0 -1.7601754760e+02 +8.0065467331e+01 -6.6448936182e+01 2.0447033341e+02 0.0000000000e+00 0.0000e+00 -1.0000e+00
       22  1    1    2    0    0 +3.9716028292e+03 -2.4240991729e+03 -8.6041769746e+03 9.7817047208e+03 0.0000000000e+00 0.0000e+00 1.0000e+00
</event>
<event>
 6      1 +1.4834189e-01 1.01921400e+04 7.81653100e-03 6.92725300e-02
  1000022 -1    0    0    0    0 +0.0000000000e+00 +0.0000000000e+00 +4.4721471353e+01 1.0000100000e+04 1.0000000000e+04 0.0000e+00 -1.0000e+00
  1000022 -1    0    0    0    0 -0.0000000000e+00 -0.0000000000e+00 -4.4721471353e+01 1.0000100000e+04 1.0000000000e+04 0.0000e+00 -1.0000e+00
      -24  1    1    2    0    0 -3.0765553985e+02 -1.9749040002e+03 +2.8760968146e+02 2.0208883544e+03 7.9829010000e+01 0.0000e+00 1.0000e+00
       24  1    1    2    0    0 +2.0131013943e+03 +9.3205313567e+03 -1.5193395984e+03 9.6560679099e+03 7.9829010000e+01 0.0000e+00 1.0000e+00
       22  1    1    2    0    0 -1.0902933202e+02 +2.3778134748e+02 +4.6791642040e+02 5.3607195499e+02 0.0000000000e+00 0.0000e+00 1.0000e+00
       22  1    1    2    0    0 -1.5964165225e+03 -7.5834087040e+03 +7.6381349654e+02 7.7871717807e+03 0.0000000000e+00 0.0000e+00 1.0000e+00
</event>
<event>
 6      1 +1.4834189e-01 1.00424600e+04 7.81653100e-03 6.93616800e-02
  1000022 -1    0    0    0    0 +0.0000000000e+00 +0.0000000000e+00 +4.4721471353e+01 1.0000100000e+04 1.0000000000e+04 0.0000e+00 -1.0000e+00
  1000022 -1    0    0    0    0 -0.0000000000e+00 -0.0000000000e+00 -4.4721471353e+01 1.0000100000e+04 1.0000000000e+04 0.0000e+00 -1.0000e+00
      -24  1    1    2    0    0 -2.3453155499e+03 +2.4822274347e+03 +9.3535150256e+03 9.9577394056e+03 7.9829010000e+01 0.0000e+00 -1.0000e+00
       24  1    1    2    0    0 +1.9072977357e+03 -1.9235884702e+03 -8.5391241160e+03 8.9588498478e+03 7.9829010000e+01 0.0000e+00 -1.0000e+00
       22  1    1    2    0    0 +1.2639669582e+01 -1.0040340458e+01 -4.2574546742e+01 4.5531985614e+01 0.0000000000e+00 0.0000e+00 1.0000e+00
       22  1    1    2    0    0 +4.2537814455e+02 -5.4859862404e+02 -7.7181636281e+02 1.0380787610e+03 0.0000000000e+00 0.0000e+00 1.0000e+00
</event>
<event>
 6      1 +1.4834189e-01 1.00001100e+04 7.81653100e-03 6.93871900e-02
  1000022 -1    0    0    0    0 +0.0000000000e+00 +0.0000000000e+00 +4.4721471353e+01 1.0000100000e+04 1.0000000000e+04 0.0000e+00 -1.0000e+00
  1000022 -1    0    0    0    0 -0.0000000000e+00 -0.0000000000e+00 -4.4721471353e+01 1.0000100000e+04 1.0000000000e+04 0.0000e+00 -1.0000e+00
      -24  1    1    2    0    0 -6.2713651818e+03 -7.4889213443e+03 -1.3318129380e+03 9.8587049107e+03 7.9829010000e+01 0.0000e+00 -1.0000e+00
       24  1    1    2    0    0 +6.2592370039e+03 +7.4762532009e+03 +1.3326390675e+03 9.8414790225e+03 7.9829010000e+01 0.0000e+00 -1.0000e+00
       22  1    1    2    0    0 -9.6021649833e+01 -1.0109366546e+02 -2.3587925320e+01 1.4140889878e+02 0.0000000000e+00 0.0000e+00 -1.0000e+00
       22  1    1    2    0    0 +1.0814982779e+02 +1.1376180881e+02 +2.2761795782e+01 1.5860716800e+02 0.0000000000e+00 0.0000e+00 -1.0000e+00
</event>
<event>
 6      1 +1.4834189e-01 1.00189300e+04 7.81653100e-03 6.93758400e-02
  1000022 -1    0    0    0    0 +0.0000000000e+00 +0.0000000000e+00 +4.4721471353e+01 1.0000100000e+04 1.0000000000e+04 0.0000e+00 -1.0000e+00
  1000022 -1    0    0    0    0 -0.0000000000e+00 -0.0000000000e+00 -4.4721471353e+01 1.0000100000e+04 1.0000000000e+04 0.0000e+00 -1.0000e+00
      -24  1    1    2    0    0 +1.8280452425e+03 +9.6287264247e+03 +1.2253065992e+03 9.8773412871e+03 7.9829010000e+01 0.0000e+00 -1.0000e+00
       24  1    1    2    0    0 -1.8038739379e+03 -9.7364605644e+03 -1.2384773618e+03 9.9796204513e+03 7.9829010000e+01 0.0000e+00 -1.0000e+00
       22  1    1    2    0    0 -3.8882587584e+01 +5.4744922810e+00 +1.8861134762e+00 3.9311361042e+01 0.0000000000e+00 0.0000e+00 1.0000e+00
       22  1    1    2    0    0 +1.4711282951e+01 +1.0225964745e+02 +1.1284649155e+01 1.0392690050e+02 0.0000000000e+00 0.0000e+00 1.0000e+00
</event>
<event>
 6      1 +1.4834189e-01 1.00285200e+04 7.81653100e-03 6.93700600e-02
  1000022 -1    0    0    0    0 +0.0000000000e+00 +0.0000000000e+00 +4.4721471353e+01 1.0000100000e+04 1.0000000000e+04 0.0000e+00 1.0000e+00
  1000022 -1    0    0    0    0 -0.0000000000e+00 -0.0000000000e+00 -4.4721471353e+01 1.0000100000e+04 1.0000000000e+04 0.0000e+00 1.0000e+00
      -24  1    1    2    0    0 +7.9752737905e+03 -2.2796715503e+03 -4.1900076265e+03 9.2932465259e+03 7.9829010000e+01 0.0000e+00 1.0000e+00
       24  1    1    2    0    0 -6.3925651261e+03 +2.2023519694e+03 +3.6677558231e+03 7.6924669994e+03 7.9829010000e+01 0.0000e+00 1.0000e+00
       22  1    1    2    0    0 +6.0942444542e+02 -1.6641680651e+02 -2.4734759829e+02 6.7843462658e+02 0.0000000000e+00 0.0000e+00 -1.0000e+00
       22  1    1    2    0    0 -2.1921331099e+03 +2.4373638739e+02 +7.6959940170e+02 2.3360518481e+03 0.0000000000e+00 0.0000e+00 1.0000e+00
</event>
<event>
 6      1 +1.4834189e-01 1.02246400e+04 7.81653100e-03 6.92533700e-02
  1000022 -1    0    0    0    0 +0.0000000000e+00 +0.0000000000e+00 +4.4721471353e+01 1.0000100000e+04 1.0000000000e+04 0.0000e+00 1.0000e+00
  1000022 -1    0    0    0    0 -0.0000000000e+00 -0.0000000000e+00 -4.4721471353e+01 1.0000100000e+04 1.0000000000e+04 0.0000e+00 1.0000e+00
      -24  1    1    2    0    0 +4.0183223039e+02 +5.7179883204e+02 -6.4571646887e+02 9.5485364046e+02 7.9829010000e+01 0.0000e+00 -1.0000e+00
       24  1    1    2    0    0 -4.2296178407e+03 -7.4168640293e+03 +4.7598007852e+03 9.7755621472e+03 7.9829010000e+01 0.0000e+00 1.0000e+00
       22  1    1    2    0    0 -2.2652033011e+02 +2.0485172402e+02 -7.1900363686e+02 7.8117982476e+02 0.0000000000e+00 0.0000e+00 1.0000e+00
       22  1    1    2    0    0 +4.0543059404e+03 +6.6402134733e+03 -3.3950806795e+03 8.4886043876e+03 0.0000000000e+00 0.0000e+00 1.0000e+00
</event>
<event>
 6      1 +1.4834189e-01 1.00280200e+04 7.81653100e-03 6.93703600e-02
  1000022 -1    0    0    0    0 +0.0000000000e+00 +0.0000000000e+00 +4.4721471353e+01 1.0000100000e+04 1.0000000000e+04 0.0000e+00 -1.0000e+00
  1000022 -1    0    0    0    0 -0.0000000000e+00 -0.0000000000e+00 -4.4721471353e+01 1.0000100000e+04 1.0000000000e+04 0.0000e+00 -1.0000e+00
      -24  1    1    2    0    0 +5.0557694635e+03 -2.2345240937e+03 -8.1362932854e+03 9.8366429176e+03 7.9829010000e+01 0.0000e+00 1.0000e+00
       24  1    1    2    0    0 -5.1603225102e+03 +2.2935868411e+03 +8.2081163642e+03 9.9633837588e+03 7.9829010000e+01 0.0000e+00 1.0000e+00
       22  1    1    2    0    0 +2.8128729509e+01 -4.3214245621e+01 +3.8981330614e+01 6.4639311450e+01 0.0000000000e+00 0.0000e+00 1.0000e+00
       22  1    1    2    0    0 +7.6424317233e+01 -1.5848501776e+01 -1.1080440945e+02 1.3553401206e+02 0.0000000000e+00 0.0000e+00 -1.0000e+00
</event>
<event>
 6      1 +1.4834189e-01 1.00028200e+04 7.81653100e-03 6.93855500e-02
  1000022 -1    0    0    0    0 +0.0000000000e+00 +0.0000000000e+00 +4.4721471353e+01 1.0000100000e+04 1.0000000000e+04 0.0000e+00 1.0000e+00
  1000022 -1    0    0    0    0 -0.0000000000e+00 -0.0000000000e+00 -4.4721471353e+01 1.0000100000e+04 1.0000000000e+04 0.0000e+00 1.0000e+00
      -24  1    1    2    0    0 +2.6369522065e+03 -6.3202753973e+03 +4.8517170436e+03 8.3931477396e+03 7.9829010000e+01 0.0000e+00 1.0000e+00
       24  1    1    2    0    0 -3.1243019751e+03 +7.5053672879e+03 -5.7681066103e+03 9.9684114831e+03 7.9829010000e+01 0.0000e+00 1.0000e+00
       22  1    1    2    0    0 -2.4844913775e+01 +1.2249032869e+01 -2.0410601794e+01 3.4407865559e+01 0.0000000000e+00 0.0000e+00 1.0000e+00
       22  1    1    2    0    0 +5.1219468234e+02 -1.1973409234e+03 +9.3680016850e+02 1.6042329118e+03 0.0000000000e+00 0.0000e+00 1.0000e+00
</event>
<event>
 6      1 +1.4834189e-01 1.00380700e+04 7.81653100e-03 6.93643200e-02
  1000022 -1    0    0    0    0 +0.0000000000e+00 +0.0000000000e+00 +4.4721471353e+01 1.0000100000e+04 1.0000000000e+04 0.0000e+00 -1.0000e+00
  1000022 -1    0    0    0    0 -0.0000000000e+00 -0.0000000000e+00 -4.4721471353e+01 1.0000100000e+04 1.0000000000e+04 0.0000e+00 -1.0000e+00
      -24  1    1    2    0    0 +1.4990048629e+03 +3.9576359384e+03 +8.6769140868e+03 9.6542792864e+03 7.9829010000e+01 0.0000e+00 -1.0000e+00
       24  1    1    2    0    0 -1.8073262753e+03 -3.6860162391e+03 -8.2512772021e+03 9.2164576773e+03 7.9829010000e+01 0.0000e+00 -1.0000e+00
       22  1    1    2    0    0 +1.0039673765e+02 +1.2922008604e+02 +2.6075931849e+02 3.0785184383e+02 0.0000000000e+00 0.0000e+00 1.0000e+00
       22  1    1    2    0    0 +2.0792467474e+02 -4.0083978533e+02 -6.8639620317e+02 8.2161119247e+02 0.0000000000e+00 0.0000e+00 1.0000e+00
</event>
<event>
 6      1 +1.4834189e-01 1.00116300e+04 7.81653100e-03 6.93802400e-02
  1000022 -1    0    0    0    0 +0.0000000000e+00 +0.0000000000e+00 +4.4721471353e+01 1.0000100000e+04 1.0000000000e+04 0.0000e+00 -1.0000e+00
  1000022 -1    0    0    0    0 -0.0000000000e+00 -0.0000000000e+00 -4.4721471353e+01 1.0000100000e+04 1.0000000000e+04 0.0000e+00 -1.0000e+00
      -24  1    1    2    0    0 -3.7073864856e+03 +9.2338141711e+03 -8.7017873545e+02 9.9885745932e+03 7.9829010000e+01 0.0000e+00 1.0000e+00
       24  1    1    2    0    0 +3.6755881548e+03 -9.1084342399e+03 +9.0040378003e+02 9.8636008751e+03 7.9829010000e+01 0.0000e+00 1.0000e+00
       22  1    1    2    0    0 +4.2936785794e+01 -1.0681134668e+02 -5.6298292026e+00 1.1525591669e+02 0.0000000000e+00 0.0000e+00 -1.0000e+00
       22  1    1    2    0    0 -1.1138454939e+01 -1.8568584591e+01 -2.4595215377e+01 3.2768615040e+01 0.0000000000e+00 0.0000e+00 -1.0000e+00
</event>
<event>
 6      1 +1.4834189e-01 1.02467900e+04 7.81653100e-03 6.92403600e-02
  1000022 -1    0    0    0    0 +0.0000000000e+00 +0.0000000000e+00 +4.4721471353e+01 1.0000100000e+04 1.0000000000e+04 0.0000e+00 1.0000e+00
  1000022 -1    0    0    0    0 -0.0000000000e+00 -0.0000000000e+00 -4.4721471353e+01 1.0000100000e+04 1.0000000000e+04 0.0000e+00 1.0000e+00
      -24  1    1    2    0    0 +3.0573205015e+03 +9.9083301387e+02 +9.0123777892e+03 9.5686093450e+03 7.9829010000e+01 0.0000e+00 1.0000e+00
       24  1    1    2    0    0 -3.1270689530e+03 +3.5912284956e+02 -5.5202285617e+03 6.3550629818e+03 7.9829010000e+01 0.0000e+00 1.0000e+00
       22  1    1    2    0    0 +7.3482333652e+01 -2.6190911421e+01 +1.6752347163e+02 1.8479645761e+02 0.0000000000e+00 0.0000e+00 1.0000e+00
       22  1    1    2    0    0 -3.7338820956e+00 -1.3237649520e+03 -3.6596726991e+03 3.8917312156e+03 0.0000000000e+00 0.0000e+00 -1.0000e+00
</event>
<event>
 6      1 +1.4834189e-01 1.00170000e+04 7.81653100e-03 6.93770000e-02
  1000022 -1    0    0    0    0 +0.0000000000e+00 +0.0000000000e+00 +4.4721471353e+01 1.0000100000e+04 1.0000000000e+04 0.0000e+00 1.0000e+00
  1000022 -1    0    0    0    0 -0.0000000000e+00 -0.0000000000e+00 -4.4721471353e+01 1.0000100000e+04 1.0000000000e+04 0.0000e+00 1.0000e+00
      -24  1    1    2    0    0 -1.1179379413e+03 +3.3088275667e+03 -9.1588931308e+03 9.8025415663e+03 7.9829010000e+01 0.0000e+00 -1.0000e+00
       24  1    1    2    0    0 -4.5546260678e+01 -3.6403927510e+01 +4.5730906397e+02 4.6787173310e+02 7.9829010000e+01 0.0000e+00 -1.0000e+00
       22  1    1    2    0    0 -1.4765554362e+01 +5.0794655752e+01 -1.7274509743e+02 1.8066263403e+02 0.0000000000e+00 0.0000e+00 -1.0000e+00
       22  1    1    2    0    0 +1.1782497563e+03 -3.3232182949e+03 +8.8743291642e+03 9.5491240666e+03 0.0000000000e+00 0.0000e+00 -1.0000e+00
</event>
<event>
 6      1 +1.4834189e-01 1.00260500e+04 7.81653100e-03 6.93715500e-02
  1000022 -1    0    0    0    0 +0.0000000000e+00 +0.0000000000e+00 +4.4721471353e+01 1.0000100000e+04 1.0000000000e+04 0.0000e+00 -1.0000e+00
  1000022 -1    0    0    0    0 -0.0000000000e+00 -0.0000000000e+00 -4.4721471353e+01 1.0000100000e+04 1.0000000000e+04 0.0000e+00 -1.0000e+00
      -24  1    1    2    0    0 +7.7534842995e+02 -1.7186139569e+03 +1.3484114473e+03 2.3193501726e+03 7.9829010000e+01 0.0000e+00 1.0000e+00
       24  1    1    2    0    0 -2.1777689392e+03 +6.6752278516e+03 -7.0402116255e+03 9.9434549743e+03 7.9829010000e+01 0.0000e+00 1.0000e+00
       22  1    1    2    0    0 +1.4018963409e+03 -4.9782186587e+03 +5.7136000339e+03 7.7066983665e+03 0.0000000000e+00 0.0000e+00 1.0000e+00
       22  1    1    2    0    0 +5.2416831145e-01 +2.1604764051e+01 -2.1799855804e+01 3.0696486692e+01 0.0000000000e+00 0.0000e+00 -1.0000e+00
</event>
<event>
 6      1 +1.4834189e-01 6.70925800e+03 7.81653100e-03 7.18850800e-02
  1000022 -1    0    0    0    0 +0.0000000000e+00 +0.0000000000e+00 +4.4721471353e+01 1.0000100000e+04 1.0000000000e+04 0.0000e+00 1.0000e+00
  1000022 -1    0    0    0    0 -0.0000000000e+00 -0.0000000000e+00 -4.4721471353e+01 1.0000100000e+04 1.0000000000e+04 0.0000e+00 1.0000e+00
      -24  1    1    2    0    0 -4.4021039331e+03 +2.3469446057e+03 +5.1283577724e+02 5.0155798494e+03 7.9829010000e+01 0.0000e+00 -1.0000e+00
       24  1    1    2    0    0 +2.6246615568e+03 -8.0079914952e+03 -9.5809654839e+02 8.4818098152e+03 7.9829010000e+01 0.0000e+00 -1.0000e+00
       22  1    1    2    0    0 -2.9267665321e+02 +6.3220645124e+01 +4.4272367982e+02 5.3447238467e+02 0.0000000000e+00 0.0000e+00 1.0000e+00
       22  1    1    2    0    0 +2.0701190295e+03 +5.5978262443e+03 +2.5370913225e+00 5.9683379508e+03 0.0000000000e+00 0.0000e+00 -1.0000e+00
</event>
<event>
 6      1 +1.4834189e-01 1.00963200e+04 7.81653100e-03 6.93294200e-02
  1000022 -1    0    0    0    0 +0.0000000000e+00 +0.0000000000e+00 +4.4721471353e+01 1.0000100000e+04 1.0000000000e+04 0.0000e+00 -1.0000e+00
  1000022 -1    0    0    0    0 -0.0000000000e+00 -0.0000000000e+00 -4.4721471353e+01 1.0000100000e+04 1.0000000000e+04 0.0000e+00 -1.0000e+00
      -24  1    1    2    0    0 -9.6866112782e+01 +3.4596416747e+02 -6.0315224444e+02 7.0656885707e+02 7.9829010000e+01 0.0000e+00 -1.0000e+00
       24  1    1    2    0    0 -2.3003764256e+03 -3.7777342387e+03 +8.7334011595e+03 9.7898762077e+03 7.9829010000e+01 0.0000e+00 1.0000e+00
       22  1    1    2    0    0 +2.5959720453e+03 +3.6448536049e+03 -8.0353281719e+03 9.1973108837e+03 0.0000000000e+00 0.0000e+00 1.0000e+00
       22  1    1    2    0    0 -1.9872950694e+02 -2.1308353369e+02 -9.4920743165e+01 3.0644405157e+02 0.0000000000e+00 0.0000e+00 -1.0000e+00
</event>
<event>
 6      1 +1.4834189e-01 1.02580500e+04 7.81653100e-03 6.92337600e-02
  1000022 -1    0    0    0    0 +0.0000000000e+00 +0.0000000000e+00 +4.4721471353e+01 1.0000100000e+04 1.0000000000e+04 0.0000e+00 -1.0000e+00
  1000022 -1    0    0    0    0 -0.0000000000e+00 -0.0000000000e+00 -4.4721471353e+01 1.0000100000e+04 1.0000000000e+04 0.0000e+00 -1.0000e+00
      -24  1    1    2    0    0 +9.6225112857e+03 -6.5132640485e+00 -1.5200003753e+03 9.7421527230e+03 7.9829010000e+01 0.0000e+00 1.0000e+00
       24  1    1    2    0    0 -9.2196919038e+03 +2.1994406535e+02 +7.9458512360e+02 9.2568262586e+03 7.9829010000e+01 0.0000e+00 1.0000e+00
       22  1    1    2    0    0 -1.7477107820e+02 -7.6359640064e+01 -3.6498405433e+01 1.9418511273e+02 0.0000000000e+00 0.0000e+00 -1.0000e+00
       22  1    1    2    0    0 -2.2804830368e+02 -1.3707116124e+02 +7.6191365718e+02 8.0703590567e+02 0.0000000000e+00 0.0000e+00 -1.0000e+00
</event>
<event>
 6      1 +1.4834189e-01 1.00179800e+04 7.81653100e-03 6.93764100e-02
  1000022 -1    0    0    0    0 +0.0000000000e+00 +0.0000000000e+00 +4.4721471353e+01 1.0000100000e+04 1.0000000000e+04 0.0000e+00 -1.0000e+00
  1000022 -1    0    0    0    0 -0.0000000000e+00 -0.0000000000e+00 -4.4721471353e+01 1.0000100000e+04 1.0000000000e+04 0.0000e+00 -1.0000e+00
      -24  1    1    2    0    0 +1.5157469948e+03 +4.1859432733e+01 -1.0437344596e+03 1.8425513445e+03 7.9829010000e+01 0.0000e+00 -1.0000e+00
       24  1    1    2    0    0 -8.7432279413e+03 -9.1920439110e+02 +4.7275218940e+03 9.9822245755e+03 7.9829010000e+01 0.0000e+00 -1.0000e+00
       22  1    1    2    0    0 +7.0264481131e+03 +8.5409849545e+02 -3.6688267259e+03 7.9724994117e+03 0.0000000000e+00 0.0000e+00 -1.0000e+00
       22  1    1    2    0    0 +2.0103283348e+02 +2.3246462913e+01 -1.4960708562e+01 2.0292466822e+02 0.0000000000e+00 0.0000e+00 -1.0000e+00
</event>
<event>
 6      1 +1.4834189e-01 1.00304900e+04 7.81653100e-03 6.93688700e-02
  1000022 -1    0    0    0    0 +0.0000000000e+00 +0.0000000000e+00 +4.4721471353e+01 1.0000100000e+04 1.0000000000e+04 0.0000e+00 -1.0000e+00
  1000022 -1    0    0    0    0 -0.0000000000e+00 -0.0000000000e+00 -4.4721471353e+01 1.0000100000e+04 1.0000000000e+04 0.0000e+00 -1.0000e+00
      -24  1    1    2    0    0 +4.4499901096e+03 -7.6673615130e+03 +3.9737076468e+03 9.7153265349e+03 7.9829010000e+01 0.0000e+00 1.0000e+00
       24  1    1    2    0    0 -3.5953215504e+03 +6.0453833723e+03 -3.6552621579e+03 7.9271881069e+03 7.9829010000e+01 0.0000e+00 1.0000e+00
       22  1    1    2    0    0 -1.0048931777e+03 +1.7986629142e+03 -4.2296295118e+02 2.1033060252e+03 0.0000000000e+00 0.0000e+00 1.0000e+00
       22  1    1    2    0    0 +1.5022461846e+02 -1.7668477344e+02 +1.0451746229e+02 2.5437933305e+02 0.0000000000e+00 0.0000e+00 1.0000e+00
</event>
<event>
 6      1 +1.4834189e-01 1.00640300e+04 7.81653100e-03 6.93487400e-02
  1000022 -1    0    0    0    0 +0.0000000000e+00 +0.0000000000e+00 +4.4721471353e+01 1.0000100000e+04 1.0000000000e+04 0.0000e+00 -1.0000e+00
  1000022 -1    0    0    0    0 -0.0000000000e+00 -0.0000000000e+00 -4.4721471353e+01 1.0000100000e+04 1.0000000000e+04 0.0000e+00 -1.0000e+00
      -24  1    1    2    0    0 +1.0972239896e+02 -2.7513268088e+02 +1.1768023034e+02 3.2857009050e+02 7.9829010000e+01 0.0000e+00 1.0000e+00
       24  1    1    2    0    0 +1.0594160667e+03 +9.4451146262e+03 +2.8962989678e+03 9.9361699405e+03 7.9829010000e+01 0.0000e+00 1.0000e+00
       22  1    1    2    0    0 -1.1814992199e+03 -9.1689240292e+03 -3.0090984026e+03 9.7221284426e+03 0.0000000000e+00 0.0000e+00 1.0000e+00
       22  1    1    2    0    0 +1.2360754179e+01 -1.0579161203e+00 -4.8807956078e+00 1.3331526400e+01 0.0000000000e+00 0.0000e+00 -1.0000e+00
</event>
<event>
 6      1 +1.4834189e-01 8.31743300e+03 7.81653100e-03 7.05180800e-02
  1000022 -1    0    0    0    0 +0.0000000000e+00 +0.0000000000e+00 +4.4721471353e+01 1.0000100000e+04 1.0000000000e+04 0.0000e+00 -1.0000e+00
  1000022 -1    0    0    0    0 -0.0000000000e+00 -0.0000000000e+00 -4.4721471353e+01 1.0000100000e+04 1.0000000000e+04 0.0000e+00 -1.0000e+00
      -24  1    1    2    0    0 +5.0008889033e+03 -3.8993839219e+03 +3.3722958567e+03 7.1828153818e+03 7.9829010000e+01 0.0000e+00 -1.0000e+00
       24  1    1    2    0    0 -3.0450615284e+02 -1.5937402521e+03 +2.6201367993e+03 3.0828917441e+03 7.9829010000e+01 0.0000e+00 -1.0000e+00
       22  1    1    2    0    0 +1.2301240769e+02 -1.0228480150e+02 +7.5132911243e+01 1.7674611005e+02 0.0000000000e+00 0.0000e+00 -1.0000e+00
       22  1    1    2    0    0 -4.8193951582e+03 +5.5954089754e+03 -6.0675655672e+03 9.5577467640e+03 0.0000000000e+00 0.0000e+00 -1.0000e+00
</event>
<event>
 6      1 +1.4834189e-01 1.01407700e+04 7.81653100e-03 6.93029500e-02
  1000022 -1    0    0    0    0 +0.0000000000e+00 +0.0000000000e+00 +4.4721471353e+01 1.0000100000e+04 1.0000000000e+04 0.0000e+00 1.0000e+00
  1000022 -1    0    0    0    0 -0.0000000000e+00 -0.0000000000e+00 -4.4721471353e+01 1.0000100000e+04 1.0000000000e+04 0.0000e+00 1.0000e+00
      -24  1    1    2    0    0 +2.0209882704e+03 -9.4810793572e+03 +1.7963131953e+03 9.8594306699e+03 7.9829010000e+01 0.0000e+00 1.0000e+00
       24  1    1    2    0    0 -1.5824519704e+03 +8.2115923123e+03 -1.0220036662e+03 8.4252754677e+03 7.9829010000e+01 0.0000e+00 1.0000e+00
       22  1    1    2    0    0 -6.0504736971e+02 +1.1667479249e+03 -5.6990693898e+02 1.4325421316e+03 0.0000000000e+00 0.0000e+00 1.0000e+00
       22  1    1    2    0    0 +1.6651106972e+02 +1.0273912008e+02 -2.0440259011e+02 2.8295173083e+02 0.0000000000e+00 0.0000e+00 1.0000e+00
</event>
<event>
 6      1 +1.4834189e-01 1.10473000e+04 7.81653100e-03 6.87910700e-02
  1000022 -1    0    0    0    0 +0.0000000000e+00 +0.0000000000e+00 +4.4721471353e+01 1.0000100000e+04 1.0000000000e+04 0.0000e+00 1.0000e+00
  1000022 -1    0    0    0    0 -0.0000000000e+00 -0.0000000000e+00 -4.4721471353e+01 1.0000100000e+04 1.0000000000e+04 0.0000e+00 1.0000e+00
      -24  1    1    2    0    0 -3.8365833614e+03 +2.4663048958e+03 -1.8501511059e+03 4.9225464461e+03 7.9829010000e+01 0.0000e+00 -1.0000e+00
       24  1    1    2    0    0 +4.7002357668e+03 -7.6168154355e+03 +1.9967308374e+02 8.9528953782e+03 7.9829010000e+01 0.0000e+00 -1.0000e+00
       22  1    1    2    0    0 -8.6635215959e+02 +5.3786283575e+02 -3.7565503740e+02 1.0867286697e+03 0.0000000000e+00 0.0000e+00 1.0000e+00
       22  1    1    2    0    0 +2.6997542512e+00 +4.6126477039e+03 +2.0261330595e+03 5.0380295060e+03 0.0000000000e+00 0.0000e+00 -1.0000e+00
</event>
<event>
 6      1 +1.4834189e-01 1.00408800e+04 7.81653100e-03 6.93626300e-02
  1000022 -1    0    0    0    0 +0.0000000000e+00 +0.0000000000e+00 +4.4721471353e+01 1.0000100000e+04 1.0000000000e+04 0.0000e+00 -1.0000e+00
  1000022 -1    0    0    0    0 -0.0000000000e+00 -0.0000000000e+00 -4.4721471353e+01 1.0000100000e+04 1.0000000000e+04 0.0000e+00 -1.0000e+00
      -24  1    1    2    0    0 -2.7463792434e+03 -9.3636539415e+03 -1.9902351990e+03 9.9593183955e+03 7.9829010000e+01 0.0000e+00 -1.0000e+00
       24  1    1    2    0    0 +2.4643780159e+03 +9.0125939611e+03 +1.8073802426e+03 9.5169850754e+03 7.9829010000e+01 0.0000e+00 -1.0000e+00
       22  1    1    2    0    0 +6.5279585110e+01 +2.2182249936e+02 +4.2317551372e+01 2.3506896990e+02 0.0000000000e+00 0.0000e+00 1.0000e+00
       22  1    1    2    0    0 +2.1672164240e+02 +1.2923748103e+02 +1.4053740501e+02 2.8882755927e+02 0.0000000000e+00 0.0000e+00 1.0000e+00
</event>
<event>
 6      1 +1.4834189e-01 1.00002900e+04 7.81653100e-03 6.93870800e-02
  1000022 -1    0    0    0    0 +0.0000000000e+00 +0.0000000000e+00 +4.4721471353e+01 1.0000100000e+04 1.0000000000e+04 0.0000e+00 -1.0000e+00
  1000022 -1    0    0    0    0 -0.0000000000e+00 -0.0000000000e+00 -4.4721471353e+01 1.0000100000e+04 1.0000000000e+04 0.0000e+00 -1.0000e+00
      -24  1    1    2    0    0 +1.7529829380e+03 -1.2284728675e+03 +1.7763414738e+03 2.7827785520e+03 7.9829010000e+01 0.0000e+00 0.0000e+00
       24  1    1    2    0    0 -2.2683099782e+03 +1.6404570613e+03 -2.4361734371e+03 3.7118247821e+03 7.9829010000e+01 0.0000e+00 0.0000e+00
       22  1    1    2    0    0 -3.9373740741e+03 +2.7291376188e+03 -4.0729520364e+03 6.2880875497e+03 0.0000000000e+00 0.0000e+00 -1.0000e+00
       22  1    1    2    0    0 +4.4527011142e+03 -3.1411218126e+03 +4.7327839997e+03 7.2175091161e+03 0.0000000000e+00 0.0000e+00 -1.0000e+00
</event>
<event>
 6      1 +1.4834189e-01 6.84474300e+03 7.81653100e-03 7.17556200e-02
  1000022 -1    0    0    0    0 +0.0000000000e+00 +0.0000000000e+00 +4.4721471353e+01 1.0000100000e+04 1.0000000000e+04 0.0000e+00 -1.0000e+00
  1000022 -1    0    0    0    0 -0.0000000000e+00 -0.0000000000e+00 -4.4721471353e+01 1.0000100000e+04 1.0000000000e+04 0.0000e+00 -1.0000e+00
      -24  1    1    2    0    0 +4.0787922002e+03 -2.8013589059e+03 +1.9076545653e+03 5.3037417116e+03 7.9829010000e+01 0.0000e+00 -1.0000e+00
       24  1    1    2    0    0 -1.4089009837e+03 +8.1400317151e+03 +4.2555092403e+02 8.2723989607e+03 7.9829010000e+01 0.0000e+00 -1.0000e+00
       22  1    1    2    0    0 -2.6818608680e+03 -5.3360803148e+03 -2.3334872069e+03 6.4118089012e+03 0.0000000000e+00 0.0000e+00 -1.0000e+00
       22  1    1    2    0    0 +1.1969651468e+01 -2.5924944580e+00 +2.8171757303e-01 1.2250426465e+01 0.0000000000e+00 0.0000e+00 1.0000e+00
</event>
<event>
 6      1 +1.4834189e-01 1.00226300e+04 7.81653100e-03 6.93736100e-02
  1000022 -1    0    0    0    0 +0.0000000000e+00 +0.0000000000e+00 +4.4721471353e+01 1.0000100000e+04 1.0000000000e+04 0.0000e+00 -1.0000e+00
  1000022 -1    0    0    0    0 -0.0000000000e+00 -0.0000000000e+00 -4.4721471353e+01 1.0000100000e+04 1.0000000000e+04 0.0000e+00 -1.0000e+00
      -24  1    1    2    0    0 +2.4465042836e+02 +1.2636347432e+03 -1.5796372103e+03 2.0391794878e+03 7.9829010000e+01 0.0000e+00 -1.0000e+00
       24  1    1    2    0    0 -1.1256196269e+03 -6.7809761497e+03 +7.2316622806e+03 9.9775733071e+03 7.9829010000e+01 0.0000e+00 1.0000e+00
       22  1    1    2    0    0 +8.0314346372e+02 +5.4223168574e+03 -5.6317559286e+03 7.8589588601e+03 0.0000000000e+00 0.0000e+00 1.0000e+00
       22  1    1    2    0    0 +7.7825734863e+01 +9.5024549069e+01 -2.0269141653e+01 1.2448834498e+02 0.0000000000e+00 0.0000e+00 1.0000e+00
</event>
<event>
 6      1 +1.4834189e-01 1.00014900e+04 7.81653100e-03 6.93863600e-02
  1000022 -1    0    0    0    0 +0.0000000000e+00 +0.0000000000e+00 +4.4721471353e+01 1.0000100000e+04 1.0000000000e+04 0.0000e+00 -1.0000e+00
  1000022 -1    0    0    0    0 -0.0000000000e+00 -0.0000000000e+00 -4.4721471353e+01 1.0000100000e+04 1.0000000000e+04 0.0000e+00 -1.0000e+00
      -24  1    1    2    0    0 +4.7136821648e+03 -3.0198507206e+03 -7.8301461252e+03 9.6257913408e+03 7.9829010000e+01 0.0000e+00 1.0000e+00
       24  1    1    2    0    0 -4.8741447059e+03 +3.1741590475e+03 +8.1061190153e+03 9.9773799383e+03 7.9829010000e+01 0.0000e+00 1.0000e+00
       22  1    1    2    0    0 +1.7199134408e+02 -1.6114522278e+02 -2.9257072555e+02 3.7569460299e+02 0.0000000000e+00 0.0000e+00 -1.0000e+00
       22  1    1    2    0    0 -1.1528802975e+01 +6.8368959022e+00 +1.6597835395e+01 2.1334117826e+01 0.0000000000e+00 0.0000e+00 -1.0000e+00
</event>
<event>
 6      1 +1.4834189e-01 1.09908300e+04 7.81653100e-03 6.88214900e-02
  1000022 -1    0    0    0    0 +0.0000000000e+00 +0.0000000000e+00 +4.4721471353e+01 1.0000100000e+04 1.0000000000e+04 0.0000e+00 -1.0000e+00
  1000022 -1    0    0    0    0 -0.0000000000e+00 -0.0000000000e+00 -4.4721471353e+01 1.0000100000e+04 1.0000000000e+04 0.0000e+00 -1.0000e+00
      -24  1    1    2    0    0 -3.5581013666e+03 -1.8015727030e+03 -8.0781544299e+03 9.0093674141e+03 7.9829010000e+01 0.0000e+00 -1.0000e+00
       24  1    1    2    0    0 +3.7318714757e+03 +3.6064753478e+03 +5.0898268576e+03 7.2695418877e+03 7.9829010000e+01 0.0000e+00 -1.0000e+00
       22  1    1    2    0    0 +1.6001453502e+02 +1.5309864782e+02 +2.0393728690e+02 3.0105525135e+02 0.0000000000e+00 0.0000e+00 -1.0000e+00
       22  1    1    2    0    0 -3.3378464417e+02 -1.9580012926e+03 +2.7843902854e+03 3.4202354468e+03 0.0000000000e+00 0.0000e+00 -1.0000e+00
</event>
<event>
 6      1 +1.4834189e-01 1.01998500e+04 7.81653100e-03 6.92679800e-02
  1000022 -1    0    0    0    0 +0.0000000000e+00 +0.0000000000e+00 +4.4721471353e+01 1.0000100000e+04 1.0000000000e+04 0.0000e+00 -1.0000e+00
  1000022 -1    0    0    0    0 -0.0000000000e+00 -0.0000000000e+00 -4.4721471353e+01 1.0000100000e+04 1.0000000000e+04 0.0000e+00 -1.0000e+00
      -24  1    1    2    0    0 +8.8575043444e+02 +3.0643284902e+03 +9.2301502965e+03 9.7661000453e+03 7.9829010000e+01 0.0000e+00 1.0000e+00
       24  1    1    2    0    0 -1.6966498830e+03 -2.6220485066e+03 -8.2439843436e+03 8.8160881192e+03 7.9829010000e+01 0.0000e+00 1.0000e+00
       22  1    1    2    0    0 +8.2450044021e+02 -4.4769565933e+02 -1.0171321916e+03 1.3837594713e+03 0.0000000000e+00 0.0000e+00 -1.0000e+00
       22  1    1    2    0    0 -1.3600991612e+01 +5.4156757154e+00 +3.0966238657e+01 3.4252364194e+01 0.0000000000e+00 0.0000e+00 -1.0000e+00
</event>
<event>
 6      1 +1.4834189e-01 1.00223900e+04 7.81653100e-03 6.93737500e-02
  1000022 -1    0    0    0    0 +0.0000000000e+00 +0.0000000000e+00 +4.4721471353e+01 1.0000100000e+04 1.0000000000e+04 0.0000e+00 1.0000e+00
  1000022 -1    0    0    0    0 -0.0000000000e+00 -0.0000000000e+00 -4.4721471353e+01 1.0000100000e+04 1.0000000000e+04 0.0000e+00 1.0000e+00
      -24  1    1    2    0    0 +3.4513326554e+02 +1.5143462651e+02 -1.3818626751e+02 4.0928905734e+02 7.9829010000e+01 0.0000e+00 -1.0000e+00
       24  1    1    2    0    0 -3.6347125730e+03 +4.9225523371e+02 +8.5482229932e+02 3.7670339177e+03 7.9829010000e+01 0.0000e+00 1.0000e+00
       22  1    1    2    0    0 -6.1384591485e+03 +3.4186297399e+02 +8.8101484880e+02 6.2107759721e+03 0.0000000000e+00 0.0000e+00 -1.0000e+00
       22  1    1    2    0    0 +9.4280384560e+03 -9.8555283421e+02 -1.5976508806e+03 9.6131010529e+03 0.0000000000e+00 0.0000e+00 -1.0000e+00
</event>
<event>
 6      1 +1.4834189e-01 1.00039700e+04 7.81653100e-03 6.93848600e-02
  1000022 -1    0    0    0    0 +0.0000000000e+00 +0.0000000000e+00 +4.4721471353e+01 1.0000100000e+04 1.0000000000e+04 0.0000e+00 1.0000e+00
  1000022 -1    0    0    0    0 -0.0000000000e+00 -0.0000000000e+00 -4.4721471353e+01 1.0000100000e+04 1.0000000000e+04 0.0000e+00 1.0000e+00
      -24  1    1    2    0    0 +7.5385552070e+03 +1.2183832813e+03 -5.7981525195e+03 9.5884940288e+03 7.9829010000e+01 0.0000e+00 1.0000e+00
       24  1    1    2    0    0 -7.8566743760e+03 -1.2878801465e+03 +5.9424762646e+03 9.9350573400e+03 7.9829010000e+01 0.0000e+00 1.0000e+00
       22  1    1    2    0    0 -4.5469087185e+01 -1.9412242954e+01 +3.6017357137e+01 6.1167990658e+01 0.0000000000e+00 0.0000e+00 -1.0000e+00
       22  1    1    2    0    0 +3.6358825618e+02 +8.8909108232e+01 -1.8034110224e+02 4.1548064061e+02 0.0000000000e+00 0.0000e+00 1.0000e+00
</event>
<event>
 6      1 +1.4834189e-01 1.00783200e+04 7.81653100e-03 6.93401800e-02
  1000022 -1    0    0    0    0 +0.0000000000e+00 +0.0000000000e+00 +4.4721471353e+01 1.0000100000e+04 1.0000000000e+04 0.0000e+00 1.0000e+00
  1000022 -1    0    0    0    0 -0.0000000000e+00 -0.0000000000e+00 -4.4721471353e+01 1.0000100000e+04 1.0000000000e+04 0.0000e+00 1.0000e+00
      -24  1    1    2    0    0 +3.8905219526e+02 +3.2098984944e+02 -2.4645489617e+02 5.6701744308e+02 7.9829010000e+01 0.0000e+00 -1.0000e+00
       24  1    1    2    0    0 -9.5947702564e+02 -2.2758479309e+02 +2.2034600871e+03 2.4153674725e+03 7.9829010000e+01 0.0000e+00 0.0000e+00
       22  1    1    2    0    0 +3.4344813950e+03 +9.0896227554e+02 -8.8228715900e+03 9.5113057970e+03 0.0000000000e+00 0.0000e+00 -1.0000e+00
       22  1    1    2    0    0 -2.8640565646e+03 -1.0023673319e+03 +6.8658663990e+03 7.5065092874e+03 0.0000000000e+00 0.0000e+00 -1.0000e+00
</event>
<event>
 6      1 +1.4834189e-01 1.00235200e+04 7.81653100e-03 6.93730700e-02
  1000022 -1    0    0    0    0 +0.0000000000e+00 +0.0000000000e+00 +4.4721471353e+01 1.0000100000e+04 1.0000000000e+04 0.0000e+00 -1.0000e+00
  1000022 -1    0    0    0    0 -0.0000000000e+00 -0.0000000000e+00 -4.4721471353e+01 1.0000100000e+04 1.0000000000e+04 0.0000e+00 -1.0000e+00
      -24  1    1    2    0    0 -3.4061099727e+03 -9.3390017381e+03 -8.4219702949e+02 9.9766831721e+03 7.9829010000e+01 0.0000e+00 1.0000e+00
       24  1    1    2    0    0 +3.0402152928e+03 +7.4227141242e+03 +8.0438327331e+02 8.0618235603e+03 7.9829010000e+01 0.0000e+00 1.0000e+00
       22  1    1    2    0    0 +2.6665141796e+01 +6.9896918584e+01 -3.5843826737e+01 8.2954137508e+01 0.0000000000e+00 0.0000e+00 1.0000e+00
       22  1    1    2    0    0 +3.3922953808e+02 +1.8463906953e+03 +7.3657582920e+01 1.8787391301e+03 0.0000000000e+00 0.0000e+00 1.0000e+00
</event>
<event>
 6      1 +1.4834189e-01 1.00098100e+04 7.81653100e-03 6.93813400e-02
  1000022 -1    0    0    0    0 +0.0000000000e+00 +0.0000000000e+00 +4.4721471353e+01 1.0000100000e+04 1.0000000000e+04 0.0000e+00 -1.0000e+00
  1000022 -1    0    0    0    0 -0.0000000000e+00 -0.0000000000e+00 -4.4721471353e+01 1.0000100000e+04 1.0000000000e+04 0.0000e+00 -1.0000e+00
      -24  1    1    2    0    0 -8.4261846885e+01 +1.9448086145e+02 +3.3120950812e+02 4.0124216306e+02 7.9829010000e+01 0.0000e+00 0.0000e+00
       24  1    1    2    0    0 +4.9448036726e+01 -6.2957844848e+01 -6.3752310518e+01 1.2979147313e+02 7.9829010000e+01 0.0000e+00 0.0000e+00
       22  1    1    2    0    0 +1.4267421021e+02 +5.9755033569e+03 +7.4983206918e+03 9.5891506138e+03 0.0000000000e+00 0.0000e+00 1.0000e+00
       22  1    1    2    0    0 -1.0786040005e+02 -6.1070263735e+03 -7.7657778894e+03 9.8800157500e+03 0.0000000000e+00 0.0000e+00 1.0000e+00
</event>
<event>
 6      1 +1.4834189e-01 1.01458200e+04 7.81653100e-03 6.92999500e-02
  1000022 -1    0    0    0    0 +0.0000000000e+00 +0.0000000000e+00 +4.4721471353e+01 1.0000100000e+04 1.0000000000e+04 0.0000e+00 -1.0000e+00
  1000022 -1    0    0    0    0 -0.0000000000e+00 -0.0000000000e+00 -4.4721471353e+01 1.0000100000e+04 1.0000000000e+04 0.0000e+00 -1.0000e+00
      -24  1    1    2    0    0 +2.5410304251e+03 +1.7780844101e+03 -2.7760724626e+03 4.1630962971e+03 7.9829010000e+01 0.0000e+00 1.0000e+00
       24  1    1    2    0    0 -6.6035621248e+03 -1.5890978264e+03 +7.1393391624e+03 9.8543797869e+03 7.9829010000e+01 0.0000e+00 1.0000e+00
       22  1    1    2    0    0 +5.9328337666e+01 +5.7314834264e+01 -8.6179254589e+01 1.1929671328e+02 0.0000000000e+00 0.0000e+00 -1.0000e+00
       22  1    1    2    0    0 +4.0032033620e+03 -2.4630141795e+02 -4.2770874453e+03 5.8634272027e+03 0.0000000000e+00 0.0000e+00 1.0000e+00
</event>
<event>
 6      1 +1.4834189e-01 1.07283600e+04 7.81653100e-03 6.89653400e-02
  1000022 -1    0    0    0    0 +0.0000000000e+00 +0.0000000000e+00 +4.4721471353e+01 1.0000100000e+04 1.0000000000e+04 0.0000e+00 1.0000e+00
  1000022 -1    0    0    0    0 -0.0000000000e+00 -0.0000000000e+00 -4.4721471353e+01 1.0000100000e+04 1.0000000000e+04 0.0000e+00 1.0000e+00
      -24  1    1    2    0    0 +2.8988755255e+03 +3.3271074006e+03 +3.8276210151e+03 5.8421039253e+03 7.9829010000e+01 0.0000e+00 -1.0000e+00
       24  1    1    2    0    0 -3.8038604486e+03 -1.1555346884e+03 -6.8020586826e+03 7.8790221297e+03 7.9829010000e+01 0.0000e+00 -1.0000e+00
       22  1    1    2    0    0 +1.5717478038e+03 -1.9788745816e+03 +4.1820084479e+03 4.8862593491e+03 0.0000000000e+00 0.0000e+00 -1.0000e+00
       22  1    1    2    0    0 -6.6676288068e+02 -1.9269813070e+02 -1.2075707804e+03 1.3928145958e+03 0.0000000000e+00 0.0000e+00 1.0000e+00
</event>
<event>
 6      1 +1.4834189e-01 1.00028200e+04 7.81653100e-03 6.93855500e-02
  1000022 -1    0    0    0    0 +0.0000000000e+00 +0.0000000000e+00 +4.4721471353e+01 1.0000100000e+04 1.0000000000e+04 0.0000e+00 1.0000e+00
  1000022 -1    0    0    0    0 -0.0000000000e+00 -0.0000000000e+00 -4.4721471353e+01 1.0000100000e+04 1.0000000000e+04 0.0000e+00 1.0000e+00
      -24  1    1    2    0    0 +1.0152780126e+03 -4.8002044246e+03 +8.6740402960e+03 9.9658466619e+03 7.9829010000e+01 0.0000e+00 1.0000e+00
       24  1    1    2    0    0 -9.9471511825e+02 +4.7941026085e+03 -8.6487805530e+03 9.9388457938e+03 7.9829010000e+01 0.0000e+00 1.0000e+00
       22  1    1    2    0    0 -6.2750290017e+00 +2.9210196732e+01 -5.0336208864e+01 5.8534993848e+01 0.0000000000e+00 0.0000e+00 -1.0000e+00
       22  1    1    2    0    0 -1.4287865315e+01 -2.3108380661e+01 +2.5076465844e+01 3.6972550510e+01 0.0000000000e+00 0.0000e+00 1.0000e+00
</event>
<event>
 6      1 +1.4834189e-01 1.00110900e+04 7.81653100e-03 6.93805600e-02
  1000022 -1    0    0    0    0 +0.0000000000e+00 +0.0000000000e+00 +4.4721471353e+01 1.0000100000e+04 1.0000000000e+04 0.0000e+00 -1.0000e+00
  1000022 -1    0    0    0    0 -0.0000000000e+00 -0.0000000000e+00 -4.4721471353e+01 1.0000100000e+04 1.0000000000e+04 0.0000e+00 -1.0000e+00
      -24  1    1    2    0    0 -4.2318618541e+03 +9.7139884491e+02 +7.0168965066e+03 8.2519985290e+03 7.9829010000e+01 0.0000e+00 1.0000e+00
       24  1    1    2    0    0 +4.6473384370e+03 -7.7806587991e+02 -7.6361135891e+03 8.9732794718e+03 7.9829010000e+01 0.0000e+00 1.0000e+00
       22  1    1    2    0    0 -9.2916359639e+02 -9.8364615325e+01 +1.4904319471e+03 1.7590929411e+03 0.0000000000e+00 0.0000e+00 1.0000e+00
       22  1    1    2    0    0 +5.1368701344e+02 -9.4968349676e+01 -8.7121486455e+02 1.0158290582e+03 0.0000000000e+00 0.0000e+00 1.0000e+00
</event>
<event>
 6      1 +1.4834189e-01 8.30004500e+03 7.81653100e-03 7.05311400e-02
  1000022 -1    0    0    0    0 +0.0000000000e+00 +0.0000000000e+00 +4.4721471353e+01 1.0000100000e+04 1.0000000000e+04 0.0000e+00 -1.0000e+00
  1000022 -1    0    0    0    0 -0.0000000000e+00 -0.0000000000e+00 -4.4721471353e+01 1.0000100000e+04 1.0000000000e+04 0.0000e+00 -1.0000e+00
      -24  1    1    2    0    0 +6.6722687729e+02 +1.2925068654e+03 +1.1422882973e+03 1.8512052636e+03 7.9829010000e+01 0.0000e+00 1.0000e+00
       24  1    1    2    0    0 +3.8998921619e+03 -4.1543934715e+03 -7.0555290441e+03 9.0694546007e+03 7.9829010000e+01 0.0000e+00 1.0000e+00
       22  1    1    2    0    0 +8.1574604017e+02 +6.8463636696e+02 +6.8634322249e+02 1.2669789170e+03 0.0000000000e+00 0.0000e+00 1.0000e+00
       22  1    1    2    0    0 -5.3828650794e+03 +2.1772502392e+03 +5.2268975243e+03 7.8125612187e+03 0.0000000000e+00 0.0000e+00 1.0000e+00
</event>
<event>
 6      1 +1.4834189e-01 1.02063600e+04 7.81653100e-03 6.92641400e-02
  1000022 -1    0    0    0    0 +0.0000000000e+00 +0.0000000000e+00 +4.4721471353e+01 1.0000100000e+04 1.0000000000e+04 0.0000e+00 1.0000e+00
  1000022 -1    0    0    0    0 -0.0000000000e+00 -0.0000000000e+00 -4.4721471353e+01 1.0000100000e+04 1.0000000000e+04 0.0000e+00 1.0000e+00
      -24  1    1    2    0    0 -5.0182545443e+03 +6.5470121680e+03 -1.4483887389e+02 8.2506725768e+03 7.9829010000e+01 0.0000e+00 1.0000e+00
       24  1    1    2    0    0 +5.1586411714e+03 -7.8583138232e+03 +1.1401089221e+02 9.4012789573e+03 7.9829010000e+01 0.0000e+00 1.0000e+00
       22  1    1    2    0    0 +7.8853062107e+02 +8.3799871035e+01 +1.3910280870e+02 8.0507921979e+02 0.0000000000e+00 0.0000e+00 -1.0000e+00
       22  1    1    2    0    0 -9.2891724811e+02 +1.2275017842e+03 -1.0827482701e+02 1.5431692461e+03 0.0000000000e+00 0.0000e+00 -1.0000e+00
</event>
<event>
 6      1 +1.4834189e-01 1.00178700e+04 7.81653100e-03 6.93764700e-02
  1000022 -1    0    0    0    0 +0.0000000000e+00 +0.0000000000e+00 +4.4721471353e+01 1.0000100000e+04 1.0000000000e+04 0.0000e+00 1.0000e+00
  1000022 -1    0    0    0    0 -0.0000000000e+00 -0.0000000000e+00 -4.4721471353e+01 1.0000100000e+04 1.0000000000e+04 0.0000e+00 1.0000e+00
      -24  1    1    2    0    0 -9.2113330942e+02 +9.3920102687e+03 +2.2878384478e+02 9.4401831645e+03 7.9829010000e+01 0.0000e+00 -1.0000e+00
       24  1    1    2    0    0 +1.0518588399e+03 -9.6102281294e+03 -3.2263034083e+02 9.6733321418e+03 7.9829010000e+01 0.0000e+00 -1.0000e+00
       22  1    1    2    0    0 -2.8525040616e+01 +5.4065327448e+02 +2.8277438524e+01 5.4214320496e+02 0.0000000000e+00 0.0000e+00 1.0000e+00
       22  1    1    2    0    0 -1.0220048984e+02 -3.2243541375e+02 +6.5569057527e+01 3.4454148875e+02 0.0000000000e+00 0.0000e+00 1.0000e+00
</event>
<event>
 6      1 +1.4834189e-01 1.01392500e+04 7.81653100e-03 6.93038500e-02
  1000022 -1    0    0    0    0 +0.0000000000e+00 +0.0000000000e+00 +4.4721471353e+01 1.0000100000e+04 1.0000000000e+04 0.0000e+00 -1.0000e+00
  1000022 -1    0    0    0    0 -0.0000000000e+00 -0.0000000000e+00 -4.4721471353e+01 1.0000100000e+04 1.0000000000e+04 0.0000e+00 -1.0000e+00
      -24  1    1    2    0    0 +2.0038389086e+03 -1.3203796872e+03 -4.6982697295e+03 5.2762566287e+03 7.9829010000e+01 0.0000e+00 1.0000e+00
       24  1    1    2    0    0 -3.9088168233e+03 +2.9906579215e+02 +9.0478571569e+03 9.8609523429e+03 7.9829010000e+01 0.0000e+00 1.0000e+00
       22  1    1    2    0    0 +2.5417305006e+01 -1.2044527331e+01 -8.2345915780e+01 8.7017009131e+01 0.0000000000e+00 0.0000e+00 -1.0000e+00
       22  1    1    2    0    0 +1.8795606097e+03 +1.0333584223e+03 -4.2672415116e+03 4.7759740193e+03 0.0000000000e+00 0.0000e+00 1.0000e+00
</event>
<event>
 6      1 +1.4834189e-01 1.00001100e+04 7.81653100e-03 6.93871900e-02
  1000022 -1    0    0    0    0 +0.0000000000e+00 +0.0000000000e+00 +4.4721471353e+01 1.0000100000e+04 1.0000000000e+04 0.0000e+00 -1.0000e+00
  1000022 -1    0    0    0    0 -0.0000000000e+00 -0.0000000000e+00 -4.4721471353e+01 1.0000100000e+04 1.0000000000e+04 0.0000e+00 -1.0000e+00
      -24  1    1    2    0    0 -6.5914317765e+02 +7.1203828879e+03 +6.2771469749e+03 9.5154226923e+03 7.9829010000e+01 0.0000e+00 -1.0000e+00
       24  1    1    2    0    0 +6.7315880782e+02 -7.2669475690e+03 -6.4023385577e+03 9.7086549753e+03 7.9829010000e+01 0.0000e+00 -1.0000e+00
       22  1    1    2    0    0 -3.7390481334e+01 +3.6688738609e+02 +3.1451652690e+02 4.8469067235e+02 0.0000000000e+00 0.0000e+00 -1.0000e+00
       22  1    1    2    0    0 +2.3374851155e+01 -2.2032270492e+02 -1.8932494411e+02 2.9143165997e+02 0.0000000000e+00 0.0000e+00 1.0000e+00
</event>
<event>
 6      1 +1.4834189e-01 1.00167800e+04 7.81653100e-03 6.93771300e-02
  1000022 -1    0    0    0    0 +0.0000000000e+00 +0.0000000000e+00 +4.4721471353e+01 1.0000100000e+04 1.0000000000e+04 0.0000e+00 -1.0000e+00
  1000022 -1    0    0    0    0 -0.0000000000e+00 -0.0000000000e+00 -4.4721471353e+01 1.0000100000e+04 1.0000000000e+04 0.0000e+00 -1.0000e+00
      -24  1    1    2    0    0 -2.0618847405e+03 +2.3804813804e+03 -5.6127925679e+03 6.4364488165e+03 7.9829010000e+01 0.0000e+00 -1.0000e+00
       24  1    1    2    0    0 +3.0829531061e+03 -3.4884825833e+03 +8.8310874954e+03 9.9834157286e+03 7.9829010000e+01 0.0000e+00 -1.0000e+00
       22  1    1    2    0    0 -9.7133761006e+02 +1.1019592592e+03 -3.2092059745e+03 3.5294211917e+03 0.0000000000e+00 0.0000e+00 -1.0000e+00
       22  1    1    2    0    0 -4.9730755596e+01 +6.0419437523e+00 -9.0889529399e+00 5.0914263247e+01 0.0000000000e+00 0.0000e+00 1.0000e+00
</event>
<event>
 6      1 +1.4834189e-01 1.00138300e+04 7.81653100e-03 6.93789100e-02
  1000022 -1    0    0    0    0 +0.0000000000e+00 +0.0000000000e+00 +4.4721471353e+01 1.0000100000e+04 1.0000000000e+04 0.0000e+00 -1.0000e+00
  1000022 -1    0    0    0    0 -0.0000000000e+00 -0.0000000000e+00 -4.4721471353e+01 1.0000100000e+04 1.0000000000e+04 0.0000e+00 -1.0000e+00
      -24  1    1    2    0    0 -4.3022489046e+03 +6.9790071087e+03 +2.8898545994e+02 8.2040094543e+03 7.9829010000e+01 0.0000e+00 1.0000e+00
       24  1    1    2    0    0 +7.9864942465e+01 -5.0423317815e+01 -3.6908816961e+01 1.2905755159e+02 7.9829010000e+01 0.0000e+00 0.0000e+00
       22  1    1    2    0    0 +5.3581233906e+03 -8.3000332353e+03 -3.2971323902e+02 9.8847735834e+03 0.0000000000e+00 0.0000e+00 1.0000e+00
       22  1    1    2    0    0 -1.1357394285e+03 +1.3714494444e+03 +7.7636596040e+01 1.7823594107e+03 0.0000000000e+00 0.0000e+00 1.0000e+00
</event>
<event>
 6      1 +1.4834189e-01 1.00387300e+04 7.81653100e-03 6.93639200e-02
  1000022 -1    0    0    0    0 +0.0000000000e+00 +0.0000000000e+00 +4.4721471353e+01 1.0000100000e+04 1.0000000000e+04 0.0000e+00 1.0000e+00
  1000022 -1    0    0    0    0 -0.0000000000e+00 -0.0000000000e+00 -4.4721471353e+01 1.0000100000e+04 1.0000000000e+04 0.0000e+00 1.0000e+00
      -24  1    1    2    0    0 -3.4746432404e+03 +5.7994623432e+03 -2.2928532616e+03 7.1393597659e+03 7.9829010000e+01 0.0000e+00 -1.0000e+00
       24  1    1    2    0    0 +4.9518916812e+03 -8.1961556342e+03 +2.7434040520e+03 9.9614676060e+03 7.9829010000e+01 0.0000e+00 -1.0000e+00
       22  1    1    2    0    0 -1.4742228924e+03 +2.1319794137e+03 -3.4723081548e+02 2.6151937971e+03 0.0000000000e+00 0.0000e+00 -1.0000e+00
       22  1    1    2    0    0 -3.0255483529e+00 +2.6471387727e+02 -1.0331997495e+02 2.8417883099e+02 0.0000000000e+00 0.0000e+00 -1.0000e+00
</event>
<event>
 6      1 +1.4834189e-01 1.00184700e+04 7.81653100e-03 6.93761100e-02
  1000022 -1    0    0    0    0 +0.0000000000e+00 +0.0000000000e+00 +4.4721471353e+01 1.0000100000e+04 1.0000000000e+04 0.0000e+00 1.0000e+00
  1000022 -1    0    0    0    0 -0.0000000000e+00 -0.0000000000e+00 -4.4721471353e+01 1.0000100000e+04 1.0000000000e+04 0.0000e+00 1.0000e+00
      -24  1    1    2    0    0 +6.6773771375e+02 +5.3263631269e+02 -6.2972617888e+01 8.6018214200e+02 7.9829010000e+01 0.0000e+00 -1.0000e+00
       24  1    1    2    0    0 -5.9121666504e+03 -7.6773177428e+03 +2.1176910370e+03 9.9189671955e+03 7.9829010000e+01 0.0000e+00 -1.0000e+00
       22  1    1    2    0    0 -4.6706454395e+01 -3.6763853047e+01 +2.0139844936e+01 6.2758960532e+01 0.0000000000e+00 0.0000e+00 -1.0000e+00
       22  1    1    2    0    0 +5.2911353910e+03 +7.1814452832e+03 -2.0748582641e+03 9.1582917019e+03 0.0000000000e+00 0.0000e+00 -1.0000e+00
</event>
<event>
 6      1 +1.4834189e-01 1.00004100e+04 7.81653100e-03 6.93870100e-02
  1000022 -1    0    0    0    0 +0.0000000000e+00 +0.0000000000e+00 +4.4721471353e+01 1.0000100000e+04 1.0000000000e+04 0.0000e+00 1.0000e+00
  1000022 -1    0    0    0    0 -0.0000000000e+00 -0.0000000000e+00 -4.4721471353e+01 1.0000100000e+04 1.0000000000e+04 0.0000e+00 1.0000e+00
      -24  1    1    2    0    0 -4.2833261041e+03 -5.7654301795e+03 -8.5065606214e+02 7.2330530259e+03 7.9829010000e+01 0.0000e+00 -1.0000e+00
       24  1    1    2    0    0 +5.9360557190e+03 +7.9467302955e+03 +1.1160517644e+03 9.9819449057e+03 7.9829010000e+01 0.0000e+00 -1.0000e+00
       22  1    1    2    0    0 -1.6626807837e+03 -2.1958863112e+03 -2.6799871303e+02 2.7673538607e+03 0.0000000000e+00 0.0000e+00 -1.0000e+00
       22  1    1    2    0    0 +9.9511687585e+00 +1.4586195271e+01 +2.6030108043e+00 1.7848207680e+01 0.0000000000e+00 0.0000e+00 1.0000e+00
</event>
<event>
 6      1 +1.4834189e-01 1.00520700e+04 7.81653100e-03 6.93559100e-02
  1000022 -1    0    0    0    0 +0.0000000000e+00 +0.0000000000e+00 +4.4721471353e+01 1.0000100000e+04 1.0000000000e+04 0.0000e+00 1.0000e+00
  1000022 -1    0    0    0    0 -0.0000000000e+00 -0.0000000000e+00 -4.4721471353e+01 1.0000100000e+04 1.0000000000e+04 0.0000e+00 1.0000e+00
      -24  1    1    2    0    0 +1.9367614835e+03 +6.9791006650e+03 +6.7141393399e+03 9.8764837307e+03 7.9829010000e+01 0.0000e+00 -1.0000e+00
       24  1    1    2    0    0 -2.0946256990e+02 -4.4983793273e+02 -3.5649138800e+02 6.1618788893e+02 7.9829010000e+01 0.0000e+00 -1.0000e+00
       22  1    1    2    0    0 -8.9255513819e+01 +1.4463491144e+02 -4.4080376018e+01 1.7558155913e+02 0.0000000000e+00 0.0000e+00 -1.0000e+00
       22  1    1    2    0    0 -1.6380433998e+03 -6.6738976437e+03 -6.3135675759e+03 9.3319468212e+03 0.0000000000e+00 0.0000e+00 -1.0000e+00
</event>
<event>
 6      1 +1.4834189e-01 1.00001400e+04 7.81653100e-03 6.93871700e-02
  1000022 -1    0    0    0    0 +0.0000000000e+00 +0.0000000000e+00 +4.4721471353e+01 1.0000100000e+04 1.0000000000e+04 0.0000e+00 -1.0000e+00
  1000022 -1    0    0    0    0 -0.0000000000e+00 -0.0000000000e+00 -4.4721471353e+01 1.0000100000e+04 1.0000000000e+04 0.0000e+00 -1.0000e+00
      -24  1    1    2    0    0 +5.8857165765e+03 -6.9923700367e+03 -3.2604650942e+03 9.7042209193e+03 7.9829010000e+01 0.0000e+00 -1.0000e+00
       24  1    1    2    0    0 -6.0580675180e+03 +7.1953685884e+03 +3.3645052314e+03 9.9899839489e+03 7.9829010000e+01 0.0000e+00 -1.0000e+00
       22  1    1    2    0    0 +1.7851292552e+02 -2.1088532165e+02 -1.0574899905e+02 2.9584173855e+02 0.0000000000e+00 0.0000e+00 1.0000e+00
       22  1    1    2    0    0 -6.1619839779e+00 +7.8867699986e+00 +1.7088617652e+00 1.0153393329e+01 0.0000000000e+00 0.0000e+00 -1.0000e+00
</event>
<event>
 6      1 +1.4834189e-01 1.00180100e+04 7.81653100e-03 6.93763900e-02
  1000022 -1    0    0    0    0 +0.0000000000e+00 +0.0000000000e+00 +4.4721471353e+01 1.0000100000e+04 1.0000000000e+04 0.0000e+00 -1.0000e+00
  1000022 -1    0    0    0    0 -0.0000000000e+00 -0.0000000000e+00 -4.4721471353e+01 1.0000100000e+04 1.0000000000e+04 0.0000e+00 -1.0000e+00
      -24  1    1    2    0    0 -8.8376596238e+01 -8.6644574859e+01 -1.7536960761e+01 1.4831696108e+02 7.9829010000e+01 0.0000e+00 0.0000e+00
       24  1    1    2    0    0 +9.0626388889e+03 +3.8174368255e+03 -1.1954718256e+03 9.9065520290e+03 7.9829010000e+01 0.0000e+00 -1.0000e+00
       22  1    1    2    0    0 +6.8017385388e+01 +3.2650456455e+01 -5.3833576507e+00 7.5639920421e+01 0.0000000000e+00 0.0000e+00 -1.0000e+00
       22  1    1    2    0    0 -9.0422796780e+03 -3.7634427071e+03 +1.2183921440e+03 9.8696910895e+03 0.0000000000e+00 0.0000e+00 -1.0000e+00
</event>
<event>
 6      1 +1.4834189e-01 1.00067800e+04 7.81653100e-03 6.93831600e-02
  1000022 -1    0    0    0    0 +0.0000000000e+00 +0.0000000000e+00 +4.4721471353e+01 1.0000100000e+04 1.0000000000e+04 0.0000e+00 1.0000e+00
  1000022 -1    0    0    0    0 -0.0000000000e+00 -0.0000000000e+00 -4.4721471353e+01 1.0000100000e+04 1.0000000000e+04 0.0000e+00 1.0000e+00
      -24  1    1    2    0    0 -3.0478868467e+03 -2.3086509023e+03 -8.5739812302e+03 9.3882378552e+03 7.9829010000e+01 0.0000e+00 -1.0000e+00
       24  1    1    2    0    0 +3.3629601852e+03 +2.5494551417e+03 +9.0437201897e+03 9.9802039191e+03 7.9829010000e+01 0.0000e+00 -1.0000e+00
       22  1    1    2    0    0 +8.2652181317e+00 +8.8569301427e+00 -5.2914735496e+00 1.3219634437e+01 0.0000000000e+00 0.0000e+00 1.0000e+00
       22  1    1    2    0    0 -3.2333855658e+02 -2.4966116956e+02 -4.6444748594e+02 6.1853859132e+02 0.0000000000e+00 0.0000e+00 -1.0000e+00
</event>
<event>
 6      1 +1.4834189e-01 1.02921700e+04 7.81653100e-03 6.92138000e-02
  1000022 -1    0    0    0    0 +0.0000000000e+00 +0.0000000000e+00 +4.4721471353e+01 1.0000100000e+04 1.0000000000e+04 0.0000e+00 -1.0000e+00
  1000022 -1    0    0    0    0 -0.0000000000e+00 -0.0000000000e+00 -4.4721471353e+01 1.0000100000e+04 1.0000000000e+04 0.0000e+00 -1.0000e+00
      -24  1    1    2    0    0 -3.5892166301e+03 -9.2528974445e+01 -9.0193330886e+03 9.7080265586e+03 7.9829010000e+01 0.0000e+00 1.0000e+00
       24  1    1    2    0    0 +1.3526699263e+03 -5.7519875089e+02 +5.4980515046e+03 5.6917055923e+03 7.9829010000e+01 0.0000e+00 1.0000e+00
       22  1    1    2    0    0 +6.0778427382e+02 -1.7444728679e+01 +2.4713817072e+03 2.5450802708e+03 0.0000000000e+00 0.0000e+00 1.0000e+00
       22  1    1    2    0    0 +1.6287624300e+03 +6.8517245401e+02 +1.0498998768e+03 2.0553875782e+03 0.0000000000e+00 0.0000e+00 1.0000e+00
</event>
<event>
 6      1 +1.4834189e-01 1.00098500e+04 7.81653100e-03 6.93813100e-02
  1000022 -1    0    0    0    0 +0.0000000000e+00 +0.0000000000e+00 +4.4721471353e+01 1.0000100000e+04 1.0000000000e+04 0.0000e+00 -1.0000e+00
  1000022 -1    0    0    0    0 -0.0000000000e+00 -0.0000000000e+00 -4.4721471353e+01 1.0000100000e+04 1.0000000000e+04 0.0000e+00 -1.0000e+00
      -24  1    1    2    0    0 +2.7594856074e+03 -9.2311192405e+02 -1.5096249239e+03 3.2790603110e+03 7.9829010000e+01 0.0000e+00 -1.0000e+00
       24  1    1    2    0    0 -8.2768931877e+03 +2.7816423890e+03 +4.6071591732e+03 9.8730331478e+03 7.9829010000e+01 0.0000e+00 -1.0000e+00
       22  1    1    2    0    0 +5.6356133097e+03 -1.8221963698e+03 -3.1560764357e+03 6.7112856782e+03 0.0000000000e+00 0.0000e+00 -1.0000e+00
       22  1    1    2    0    0 -1.1820572941e+02 -3.6334095197e+01 +5.8542186422e+01 1.3682086292e+02 0.0000000000e+00 0.0000e+00 1.0000e+00
</event>
<event>
 6      1 +1.4834189e-01 1.00459700e+04 7.81653100e-03 6.93595700e-02
  1000022 -1    0    0    0    0 +0.0000000000e+00 +0.0000000000e+00 +4.4721471353e+01 1.0000100000e+04 1.0000000000e+04 0.0000e+00 1.0000e+00
  1000022 -1    0    0    0    0 -0.0000000000e+00 -0.0000000000e+00 -4.4721471353e+01 1.0000100000e+04 1.0000000000e+04 0.0000e+00 1.0000e+00
      -24  1    1    2    0    0 +7.1020700518e+03 -5.9937561046e+03 -3.1257066570e+03 9.8051479355e+03 7.9829010000e+01 0.0000e+00 1.0000e+00
       24  1    1    2    0    0 -7.0894654960e+03 +5.9687226717e+03 +3.3343995540e+03 9.8494042666e+03 7.9829010000e+01 0.0000e+00 1.0000e+00
       22  1    1    2    0    0 -7.1598661088e+01 +7.4013282443e+01 +1.9596619658e+01 1.0482538695e+02 0.0000000000e+00 0.0000e+00 1.0000e+00
       22  1    1    2    0    0 +5.8994105307e+01 -4.8979849580e+01 -2.2828951674e+02 2.4082241087e+02 0.0000000000e+00 0.0000e+00 1.0000e+00
</event>
<event>
 6      1 +1.4834189e-01 1.00784500e+04 7.81653100e-03 6.93401000e-02
  1000022 -1    0    0    0    0 +0.0000000000e+00 +0.0000000000e+00 +4.4721471353e+01 1.0000100000e+04 1.0000000000e+04 0.0000e+00 1.0000e+00
  1000022 -1    0    0    0    0 -0.0000000000e+00 -0.0000000000e+00 -4.4721471353e+01 1.0000100000e+04 1.0000000000e+04 0.0000e+00 1.0000e+00
      -24  1    1    2    0    0 +7.2995327549e+03 +4.2415929185e+03 +5.2115701715e+03 9.9217501102e+03 7.9829010000e+01 0.0000e+00 1.0000e+00
       24  1    1    2    0    0 -7.6281884584e+01 -1.2577307766e+02 -1.0863707333e+02 1.9953064306e+02 7.9829010000e+01 0.0000e+00 1.0000e+00
       22  1    1    2    0    0 -7.1088525799e+03 -4.0141822183e+03 -5.2166324702e+03 9.6882763283e+03 0.0000000000e+00 0.0000e+00 1.0000e+00
       22  1    1    2    0    0 -1.1439829040e+02 -1.0163762255e+02 +1.1369937202e+02 1.9064291847e+02 0.0000000000e+00 0.0000e+00 1.0000e+00
</event>
<event>
 6      1 +1.4834189e-01 1.00263300e+04 7.81653100e-03 6.93713800e-02
  1000022 -1    0    0    0    0 +0.0000000000e+00 +0.0000000000e+00 +4.4721471353e+01 1.0000100000e+04 1.0000000000e+04 0.0000e+00 -1.0000e+00
  1000022 -1    0    0    0    0 -0.0000000000e+00 -0.0000000000e+00 -4.4721471353e+01 1.0000100000e+04 1.0000000000e+04 0.0000e+00 -1.0000e+00
      -24  1    1    2    0    0 -6.5841798407e+03 -4.9901210157e+03 -1.5149176001e+03 8.3996476076e+03 7.9829010000e+01 0.0000e+00 -1.0000e+00
       24  1    1    2    0    0 +5.0895518601e+03 +4.1572828323e+03 +1.6476165626e+03 6.7755111757e+03 7.9829010000e+01 0.0000e+00 -1.0000e+00
       22  1    1    2    0    0 -1.2421543604e+03 -9.1104892592e+02 -3.2435309209e+02 1.5742180690e+03 0.0000000000e+00 0.0000e+00 1.0000e+00
       22  1    1    2    0    0 +2.7367823410e+03 +1.7438871093e+03 +1.9165412964e+02 3.2508231477e+03 0.0000000000e+00 0.0000e+00 -1.0000e+00
</event>
<event>
 6      1 +1.4834189e-01 1.00120300e+04 7.81653100e-03 6.93800000e-02
  1000022 -1    0    0    0    0 +0.0000000000e+00 +0.0000000000e+00 +4.4721471353e+01 1.0000100000e+04 1.0000000000e+04 0.0000e+00 -1.0000e+00
  1000022 -1    0    0    0    0 -0.0000000000e+00 -0.0000000000e+00 -4.4721471353e+01 1.0000100000e+04 1.0000000000e+04 0.0000e+00 -1.0000e+00
      -24  1    1    2    0    0 -1.8140142033e+02 +1.5919106594e+03 +1.2446842024e+02 1.6090217777e+03 7.9829010000e+01 0.0000e+00 0.0000e+00
       24  1    1    2    0    0 +1.6636578273e+03 -9.8218718292e+03 -5.7055455185e+02 9.9784181493e+03 7.9829010000e+01 0.0000e+00 -1.0000e+00
       22  1    1    2    0    0 -3.1884225266e+01 -1.0582235419e+01 -1.1029023576e+00 3.3612556001e+01 0.0000000000e+00 0.0000e+00 -1.0000e+00
       22  1    1    2    0    0 -1.4503721817e+03 +8.2405434052e+03 +4.4718903397e+02 8.3791475170e+03 0.0000000000e+00 0.0000e+00 -1.0000e+00
</event>
<event>
 6      1 +1.4834189e-01 1.01586500e+04 7.81653100e-03 6.92923400e-02
  1000022 -1    0    0    0    0 +0.0000000000e+00 +0.0000000000e+00 +4.4721471353e+01 1.0000100000e+04 1.0000000000e+04 0.0000e+00 1.0000e+00
  1000022 -1    0    0    0    0 -0.0000000000e+00 -0.0000000000e+00 -4.4721471353e+01 1.0000100000e+04 1.0000000000e+04 0.0000e+00 1.0000e+00
      -24  1    1    2    0    0 +7.7657133048e+03 -4.3512336096e+03 -3.7516288117e+03 9.6602602692e+03 7.9829010000e+01 0.0000e+00 -1.0000e+00
       24  1    1    2    0    0 -8.1033248068e+03 +3.9024691308e+03 +3.7373522762e+03 9.7399852643e+03 7.9829010000e+01 0.0000e+00 -1.0000e+00
       22  1    1    2    0    0 -1.7845651008e+01 +9.9439863726e+01 +1.0423144338e+01 1.0156473648e+02 0.0000000000e+00 0.0000e+00 1.0000e+00
       22  1    1    2    0    0 +3.5545715302e+02 +3.4932461509e+02 +3.8533911777e+00 4.9838973000e+02 0.0000000000e+00 0.0000e+00 -1.0000e+00
</event>
<event>
 6      1 +1.4834189e-01 1.01004200e+04 7.81653100e-03 6.93269700e-02
  1000022 -1    0    0    0    0 +0.0000000000e+00 +0.0000000000e+00 +4.4721471353e+01 1.0000100000e+04 1.0000000000e+04 0.0000e+00 -1.0000e+00
  1000022 -1    0    0    0    0 -0.0000000000e+00 -0.0000000000e+00 -4.4721471353e+01 1.0000100000e+04 1.0000000000e+04 0.0000e+00 -1.0000e+00
      -24  1    1    2    0    0 -9.3488261066e+03 -2.9290057112e+03 -3.2526322590e+02 9.8026421369e+03 7.9829010000e+01 0.0000e+00 -1.0000e+00
       24  1    1    2    0    0 +9.4008538771e+03 +3.0497114370e+03 +5.6791663040e+02 9.8997825954e+03 7.9829010000e+01 0.0000e+00 -1.0000e+00
       22  1    1    2    0    0 -2.1519038152e+01 -1.1057199043e+02 -2.4047809854e+02 2.6555404337e+02 0.0000000000e+00 0.0000e+00 1.0000e+00
       22  1    1    2    0    0 -3.0508732332e+01 -1.0133735349e+01 -2.1753059581e+00 3.2221224320e+01 0.0000000000e+00 0.0000e+00 1.0000e+00
</event>
<event>
 6      1 +1.4834189e-01 1.00088000e+04 7.81653100e-03 6.93819400e-02
  1000022 -1    0    0    0    0 +0.0000000000e+00 +0.0000000000e+00 +4.4721471353e+01 1.0000100000e+04 1.0000000000e+04 0.0000e+00 1.0000e+00
  1000022 -1    0    0    0    0 -0.0000000000e+00 -0.0000000000e+00 -4.4721471353e+01 1.0000100000e+04 1.0000000000e+04 0.0000e+00 1.0000e+00
      -24  1    1    2    0    0 +2.5897716203e+01 +2.4287099802e+03 -2.2172431549e+03 3.2896569332e+03 7.9829010000e+01 0.0000e+00 -1.0000e+00
       24  1    1    2    0    0 -8.4875087900e+02 -7.0916886950e+03 +6.8722994319e+03 9.9119775400e+03 7.9829010000e+01 0.0000e+00 1.0000e+00
       22  1    1    2    0    0 +8.2623234087e+02 +4.7209950043e+03 -4.7091885355e+03 6.7191450628e+03 0.0000000000e+00 0.0000e+00 1.0000e+00
       22  1    1    2    0    0 -3.3791780705e+00 -5.8016289405e+01 +5.4132258561e+01 7.9420463972e+01 0.0000000000e+00 0.0000e+00 1.0000e+00
</event>
<event>
 6      1 +1.4834189e-01 1.05320200e+04 7.81653100e-03 6.90756800e-02
  1000022 -1    0    0    0    0 +0.0000000000e+00 +0.0000000000e+00 +4.4721471353e+01 1.0000100000e+04 1.0000000000e+04 0.0000e+00 1.0000e+00
  1000022 -1    0    0    0    0 -0.0000000000e+00 -0.0000000000e+00 -4.4721471353e+01 1.0000100000e+04 1.0000000000e+04 0.0000e+00 1.0000e+00
      -24  1    1    2    0    0 +2.3742223549e+03 -5.1400518924e+03 +7.3585986026e+03 9.2850638830e+03 7.9829010000e+01 0.0000e+00 1.0000e+00
       24  1    1    2    0    0 -2.8878082996e+03 +5.9353178094e+03 -6.7876851983e+03 9.4681823649e+03 7.9829010000e+01 0.0000e+00 1.0000e+00
       22  1    1    2    0    0 +4.7409006990e+02 -7.1125007497e+02 -6.8818959620e+02 1.0973800544e+03 0.0000000000e+00 0.0000e+00 -1.0000e+00
       22  1    1    2    0    0 +3.9495874823e+01 -8.4015842056e+01 +1.1727619186e+02 1.4957369763e+02 0.0000000000e+00 0.0000e+00 -1.0000e+00
</event>
<event>
 6      1 +1.4834189e-01 9.80382500e+03 7.81653100e-03 6.95071000e-02
  1000022 -1    0    0    0    0 +0.0000000000e+00 +0.0000000000e+00 +4.4721471353e+01 1.0000100000e+04 1.0000000000e+04 0.0000e+00 1.0000e+00
  1000022 -1    0    0    0    0 -0.0000000000e+00 -0.0000000000e+00 -4.4721471353e+01 1.0000100000e+04 1.0000000000e+04 0.0000e+00 1.0000e+00
      -24  1    1    2    0    0 +4.8625238009e+03 -7.5212922758e+03 +1.3042587023e+03 9.0510462735e+03 7.9829010000e+01 0.0000e+00 1.0000e+00
       24  1    1    2    0    0 +5.0063986853e+01 +1.0857899409e+02 +4.2685207798e+02 4.5041222014e+02 7.9829010000e+01 0.0000e+00 -1.0000e+00
       22  1    1    2    0    0 +1.1157335202e+02 -7.1559766011e+02 +1.9675837038e+02 7.5049482367e+02 0.0000000000e+00 0.0000e+00 -1.0000e+00
       22  1    1    2    0    0 -5.0241611398e+03 +8.1283109418e+03 -1.9278691507e+03 9.7482466827e+03 0.0000000000e+00 0.0000e+00 1.0000e+00
</event>
<event>
 6      1 +1.4834189e-01 1.00686100e+04 7.81653100e-03 6.93459900e-02
  1000022 -1    0    0    0    0 +0.0000000000e+00 +0.0000000000e+00 +4.4721471353e+01 1.0000100000e+04 1.0000000000e+04 0.0000e+00 -1.0000e+00
  1000022 -1    0    0    0    0 -0.0000000000e+00 -0.0000000000e+00 -4.4721471353e+01 1.0000100000e+04 1.0000000000e+04 0.0000e+00 -1.0000e+00
      -24  1    1    2    0    0 -3.5373641789e+02 -7.2884202110e+03 -6.7367591402e+03 9.9315907592e+03 7.9829010000e+01 0.0000e+00 1.0000e+00
       24  1    1    2    0    0 -6.2145446897e+01 +1.6708182002e+02 +5.3793833112e+01 2.0259525777e+02 7.9829010000e+01 0.0000e+00 1.0000e+00
       22  1    1    2    0    0 -7.4216430987e+01 +7.1001739076e+00 +2.5413449170e+02 2.6484491871e+02 0.0000000000e+00 0.0000e+00 -1.0000e+00
       22  1    1    2    0    0 +4.9009829577e+02 +7.1142382171e+03 +6.4288308154e+03 9.6011690643e+03 0.0000000000e+00 0.0000e+00 1.0000e+00
</event>
<event>
 6      1 +1.4834189e-01 1.03535100e+04 7.81653100e-03 6.91781200e-02
  1000022 -1    0    0    0    0 +0.0000000000e+00 +0.0000000000e+00 +4.4721471353e+01 1.0000100000e+04 1.0000000000e+04 0.0000e+00 1.0000e+00
  1000022 -1    0    0    0    0 -0.0000000000e+00 -0.0000000000e+00 -4.4721471353e+01 1.0000100000e+04 1.0000000000e+04 0.0000e+00 1.0000e+00
      -24  1    1    2    0    0 +5.7106507357e+02 +1.7681616977e+02 +1.8572483040e+02 6.3106708012e+02 7.9829010000e+01 0.0000e+00 -1.0000e+00
       24  1    1    2    0    0 -8.1862849987e+03 +1.5176332846e+03 -3.1395096085e+03 8.8983912096e+03 7.9829010000e+01 0.0000e+00 -1.0000e+00
       22  1    1    2    0    0 +8.1042908234e+03 -3.0073632695e+03 +2.5608012142e+03 9.0156234639e+03 0.0000000000e+00 0.0000e+00 -1.0000e+00
       22  1    1    2    0    0 -4.8907089824e+02 +1.3129138151e+03 +3.9298356389e+02 1.4551182464e+03 0.0000000000e+00 0.0000e+00 1.0000e+00
</event>
<event>
 6      1 +1.4834189e-01 1.00350100e+04 7.81653100e-03 6.93661600e-02
  1000022 -1    0    0    0    0 +0.0000000000e+00 +0.0000000000e+00 +4.4721471353e+01 1.0000100000e+04 1.0000000000e+04 0.0000e+00 -1.0000e+00
  1000022 -1    0    0    0    0 -0.0000000000e+00 -0.0000000000e+00 -4.4721471353e+01 1.0000100000e+04 1.0000000000e+04 0.0000e+00 -1.0000e+00
      -24  1    1    2    0    0 -9.4785933308e+03 -1.3723344118e+02 -6.1096324947e+02 9.4995901654e+03 7.9829010000e+01 0.0000e+00 -1.0000e+00
       24  1    1    2    0    0 +9.8369040115e+03 -1.0186440648e+02 +8.4201560248e+02 9.8737237066e+03 7.9829010000e+01 0.0000e+00 -1.0000e+00
       22  1    1    2    0    0 +5.9305392751e+01 +5.1671398394e+01 +4.6686593008e+01 9.1469672504e+01 0.0000000000e+00 0.0000e+00 -1.0000e+00
       22  1    1    2    0    0 -4.1761607345e+02 +1.8742644926e+02 -2.7773894602e+02 5.3541645550e+02 0.0000000000e+00 0.0000e+00 1.0000e+00
</event>
<event>
 6      1 +1.4834189e-01 1.00657400e+04 7.81653100e-03 6.93477100e-02
  1000022 -1    0    0    0    0 +0.0000000000e+00 +0.0000000000e+00 +4.4721471353e+01 1.0000100000e+04 1.0000000000e+04 0.0000e+00 -1.0000e+00
  1000022 -1    0    0    0    0 -0.0000000000e+00 -0.0000000000e+00 -4.4721471353e+01 1.0000100000e+04 1.0000000000e+04 0.0000e+00 -1.0000e+00
      -24  1    1    2    0    0 +9.2335362135e+03 +3.8286854447e+01 +6.1753803714e+02 9.2545871214e+03 7.9829010000e+01 0.0000e+00 1.0000e+00
       24  1    1    2    0    0 -8.6617320882e+03 -5.4773708418e+02 -6.4765115398e+02 8.7035305118e+03 7.9829010000e+01 0.0000e+00 1.0000e+00
       22  1    1    2    0    0 +6.7738186526e+02 -3.3535804138e+01 +4.7557674258e+01 6.7987688145e+02 0.0000000000e+00 0.0000e+00 1.0000e+00
       22  1    1    2    0    0 -1.2491859905e+03 +5.4298603387e+02 -1.7444557415e+01 1.3622054854e+03 0.0000000000e+00 0.0000e+00 1.0000e+00
</event>
<event>
 6      1 +1.4834189e-01 1.01083900e+04 7.81653100e-03 6.93222200e-02
  1000022 -1    0    0    0    0 +0.0000000000e+00 +0.0000000000e+00 +4.4721471353e+01 1.0000100000e+04 1.0000000000e+04 0.0000e+00 1.0000e+00
  1000022 -1    0    0    0    0 -0.0000000000e+00 -0.0000000000e+00 -4.4721471353e+01 1.0000100000e+04 1.0000000000e+04 0.0000e+00 1.0000e+00
      -24  1    1    2    0    0 -1.4567246372e+03 +7.1058379584e+03 -6.6137753777e+03 9.8164849706e+03 7.9829010000e+01 0.0000e+00 -1.0000e+00
       24  1    1    2    0    0 +1.2370858430e+03 -6.9895401413e+03 +6.7509870511e+03 9.7962366042e+03 7.9829010000e+01 0.0000e+00 -1.0000e+00
       22  1    1    2    0    0 +2.0508477946e+02 -4.7716585553e+01 -2.0216703599e+02 2.9190435034e+02 0.0000000000e+00 0.0000e+00 1.0000e+00
       22  1    1    2    0    0 +1.4554014733e+01 -6.8581231567e+01 +6.4955362600e+01 9.5574074930e+01 0.0000000000e+00 0.0000e+00 -1.0000e+00
</event>
<event>
 6      1 +1.4834189e-01 6.42252800e+03 7.81653100e-03 7.21695500e-02
  1000022 -1    0    0    0    0 +0.0000000000e+00 +0.0000000000e+00 +4.4721471353e+01 1.0000100000e+04 1.0000000000e+04 0.0000e+00 -1.0000e+00
  1000022 -1    0    0    0    0 -0.0000000000e+00 -0.0000000000e+00 -4.4721471353e+01 1.0000100000e+04 1.0000000000e+04 0.0000e+00 -1.0000e+00
      -24  1    1    2    0    0 -9.9323112923e+02 +1.4953773105e+02 -1.5900922314e+03 1.8824546699e+03 7.9829010000e+01 0.0000e+00 1.0000e+00
       24  1    1    2    0    0 -1.4860064225e+03 +3.9177318236e+03 +1.3937444947e+03 4.4165296463e+03 7.9829010000e+01 0.0000e+00 1.0000e+00
       22  1    1    2    0    0 -1.4377096228e+03 -1.7041658497e+03 +5.9480170395e+03 6.3521726130e+03 0.0000000000e+00 0.0000e+00 1.0000e+00
       22  1    1    2    0    0 +3.9169471745e+03 -2.3631037049e+03 -5.7516693028e+03 7.3490430708e+03 0.0000000000e+00 0.0000e+00 1.0000e+00
</event>
<event>
 6      1 +1.4834189e-01 1.00834800e+04 7.81653100e-03 6.93370900e-02
  1000022 -1    0    0    0    0 +0.0000000000e+00 +0.0000000000e+00 +4.4721471353e+01 1.0000100000e+04 1.0000000000e+04 0.0000e+00 -1.0000e+00
  1000022 -1    0    0    0    0 -0.0000000000e+00 -0.0000000000e+00 -4.4721471353e+01 1.0000100000e+04 1.0000000000e+04 0.0000e+00 -1.0000e+00
      -24  1    1    2    0    0 -5.9129922716e+03 +5.9417629253e+03 +4.6870465907e+03 9.6043116713e+03 7.9829010000e+01 0.0000e+00 1.0000e+00
       24  1    1    2    0    0 -6.3627134419e+01 -1.2922490747e+02 -3.6524934809e+02 4.0065851552e+02 7.9829010000e+01 0.0000e+00 1.0000e+00
       22  1    1    2    0    0 -2.0595145417e+02 +1.0190303880e+02 +2.1165837672e+02 3.1240918557e+02 0.0000000000e+00 0.0000e+00 1.0000e+00
       22  1    1    2    0    0 +6.1825708602e+03 -5.9144410567e+03 -4.5334556194e+03 9.6828206276e+03 0.0000000000e+00 0.0000e+00 1.0000e+00
</event>
<event>
 6      1 +1.4834189e-01 1.00087100e+04 7.81653100e-03 6.93820000e-02
  1000022 -1    0    0    0    0 +0.0000000000e+00 +0.0000000000e+00 +4.4721471353e+01 1.0000100000e+04 1.0000000000e+04 0.0000e+00 -1.0000e+00
  1000022 -1    0    0    0    0 -0.0000000000e+00 -0.0000000000e+00 -4.4721471353e+01 1.0000100000e+04 1.0000000000e+04 0.0000e+00 -1.0000e+00
      -24  1    1    2    0    0 +6.6631054462e+03 -6.0779834846e+03 -3.2916786380e+03 9.6010613139e+03 7.9829010000e+01 0.0000e+00 -1.0000e+00
       24  1    1    2    0    0 -6.8826643573e+03 +6.3400113429e+03 +3.4014497679e+03 9.9570600921e+03 7.9829010000e+01 0.0000e+00 -1.0000e+00
       22  1    1    2    0    0 -4.6490786530e+01 -7.9767755126e+00 +2.1037727430e+01 5.1648893068e+01 0.0000000000e+00 0.0000e+00 -1.0000e+00
       22  1    1    2    0    0 +2.6604969767e+02 -2.5405108273e+02 -1.3080885730e+02 3.9042970099e+02 0.0000000000e+00 0.0000e+00 -1.0000e+00
</event>
<event>
 6      1 +1.4834189e-01 1.00024300e+04 7.81653100e-03 6.93857900e-02
  1000022 -1    0    0    0    0 +0.0000000000e+00 +0.0000000000e+00 +4.4721471353e+01 1.0000100000e+04 1.0000000000e+04 0.0000e+00 -1.0000e+00
  1000022 -1    0    0    0    0 -0.0000000000e+00 -0.0000000000e+00 -4.4721471353e+01 1.0000100000e+04 1.0000000000e+04 0.0000e+00 -1.0000e+00
      -24  1    1    2    0    0 -4.8663487262e+01 +5.0500038268e+01 +1.3512043224e+02 1.7189703577e+02 7.9829010000e+01 0.0000e+00 -1.0000e+00
       24  1    1    2    0    0 +3.4353437787e+03 +2.2318569730e+03 -9.0647144292e+03 9.9477732574e+03 7.9829010000e+01 0.0000e+00 -1.0000e+00
       22  1    1    2    0    0 -4.8561229311e+01 +2.4902579764e+00 -2.4966314219e+01 5.4659959958e+01 0.0000000000e+00 0.0000e+00 -1.0000e+00
       22  1    1    2    0    0 -3.3381190622e+03 -2.2848472693e+03 +8.9545603112e+03 9.8258697469e+03 0.0000000000e+00 0.0000e+00 -1.0000e+00
</event>
<event>
 6      1 +1.4834189e-01 1.00001500e+04 7.81653100e-03 6.93871700e-02
  1000022 -1    0    0    0    0 +0.0000000000e+00 +0.0000000000e+00 +4.4721471353e+01 1.0000100000e+04 1.0000000000e+04 0.0000e+00 1.0000e+00
  1000022 -1    0    0    0    0 -0.0000000000e+00 -0.0000000000e+00 -4.4721471353e+01 1.0000100000e+04 1.0000000000e+04 0.0000e+00 1.0000e+00
      -24  1    1    2    0    0 -1.7548178954e+03 +5.6507795999e+03 +3.4121333285e+03 6.8307922275e+03 7.9829010000e+01 0.0000e+00 1.0000e+00
       24  1    1    2    0    0 +2.5525744470e+03 -8.2933747814e+03 -4.9430711022e+03 9.9867925864e+03 7.9829010000e+01 0.0000e+00 1.0000e+00
       22  1    1    2    0    0 +6.2405802861e+00 -1.1213692087e+01 -3.6954406306e+00 1.3354700071e+01 0.0000000000e+00 0.0000e+00 1.0000e+00
       22  1    1    2    0    0 -8.0399713192e+02 +2.6538088736e+03 +1.5346332143e+03 3.1692604860e+03 0.0000000000e+00 0.0000e+00 1.0000e+00
</event>
<event>
 6      1 +1.4834189e-01 1.00168000e+04 7.81653100e-03 6.93771200e-02
  1000022 -1    0    0    0    0 +0.0000000000e+00 +0.0000000000e+00 +4.4721471353e+01 1.0000100000e+04 1.0000000000e+04 0.0000e+00 1.0000e+00
  1000022 -1    0    0    0    0 -0.0000000000e+00 -0.0000000000e+00 -4.4721471353e+01 1.0000100000e+04 1.0000000000e+04 0.0000e+00 1.0000e+00
      -24  1    1    2    0    0 +3.0677153248e+02 -2.8988953794e+02 +1.7068512957e+03 1.7600735024e+03 7.9829010000e+01 0.0000e+00 -1.0000e+00
       24  1    1    2    0    0 -1.6695513353e+03 +8.2489401959e+02 -9.2017851450e+03 9.3886673352e+03 7.9829010000e+01 0.0000e+00 -1.0000e+00
       22  1    1    2    0    0 -2.6185968012e+02 +2.0708032557e+02 -5.3207522949e+02 6.2813756705e+02 0.0000000000e+00 0.0000e+00 -1.0000e+00
       22  1    1    2    0    0 +1.6246394830e+03 -7.4208480721e+02 +8.0270090788e+03 8.2233215954e+03 0.0000000000e+00 0.0000e+00 -1.0000e+00
</event>
<event>
 6      1 +1.4834189e-01 1.00242000e+04 7.81653100e-03 6.93726600e-02
  1000022 -1    0    0    0    0 +0.0000000000e+00 +0.0000000000e+00 +4.4721471353e+01 1.0000100000e+04 1.0000000000e+04 0.0000e+00 1.0000e+00
  1000022 -1    0    0    0    0 -0.0000000000e+00 -0.0000000000e+00 -4.4721471353e+01 1.0000100000e+04 1.0000000000e+04 0.0000e+00 1.0000e+00
      -24  1    1    2    0    0 -6.9508912519e+03 -1.9561700048e+03 +6.8827775870e+03 9.9759957030e+03 7.9829010000e+01 0.0000e+00 -1.0000e+00
       24  1    1    2    0    0 +5.9104387909e+02 +2.2922691656e+02 -5.6428666346e+02 8.5244938599e+02 7.9829010000e+01 0.0000e+00 0.0000e+00
       22  1    1    2    0    0 +6.0160066363e+03 +1.4185032942e+03 -5.9677565067e+03 8.5917754374e+03 0.0000000000e+00 0.0000e+00 -1.0000e+00
       22  1    1    2    0    0 +3.4384073659e+02 +3.0843979402e+02 -3.5073441684e+02 5.7997947363e+02 0.0000000000e+00 0.0000e+00 1.0000e+00
</event>
<event>
 6      1 +1.4834189e-01 1.00529200e+04 7.81653100e-03 6.93554000e-02
  1000022 -1    0    0    0    0 +0.0000000000e+00 +0.0000000000e+00 +4.4721471353e+01 1.0000100000e+04 1.0000000000e+04 0.0000e+00 -1.0000e+00
  1000022 -1    0    0    0    0 -0.0000000000e+00 -0.0000000000e+00 -4.4721471353e+01 1.0000100000e+04 1.0000000000e+04 0.0000e+00 -1.0000e+00
      -24  1    1    2    0    0 -2.1430691352e+03 +7.4882304645e+03 +5.8967014627e+02 7.8115571021e+03 7.9829010000e+01 0.0000e+00 1.0000e+00
       24  1    1    2    0    0 +2.6005681310e+03 -9.5191060504e+03 -4.0686225247e+02 9.8766514652e+03 7.9829010000e+01 0.0000e+00 1.0000e+00
       22  1    1    2    0    0 -6.5908777247e+01 -6.8356451754e+01 -1.4851096966e+02 1.7627274186e+02 0.0000000000e+00 0.0000e+00 -1.0000e+00
       22  1    1    2    0    0 -3.9159021857e+02 +2.0992320377e+03 -3.4296924140e+01 2.1357186908e+03 0.0000000000e+00 0.0000e+00 1.0000e+00
</event>
<event>
 6      1 +1.4834189e-01 1.01013400e+04 7.81653100e-03 6.93264300e-02
  1000022 -1    0    0    0    0 +0.0000000000e+00 +0.0000000000e+00 +4.4721471353e+01 1.0000100000e+04 1.0000000000e+04 0.0000e+00 1.0000e+00
  1000022 -1    0    0    0    0 -0.0000000000e+00 -0.0000000000e+00 -4.4721471353e+01 1.0000100000e+04 1.0000000000e+04 0.0000e+00 1.0000e+00
      -24  1    1    2    0    0 +1.1535434170e+03 +4.4542933431e+03 -3.6098166703e+03 5.8488067728e+03 7.9829010000e+01 0.0000e+00 -1.0000e+00
       24  1    1    2    0    0 -4.6722836671e+02 -8.1128022451e+03 +5.5652093079e+03 9.8495578543e+03 7.9829010000e+01 0.0000e+00 -1.0000e+00
       22  1    1    2    0    0 -2.4423174388e+00 -4.0347936840e+01 +2.8234879203e+01 4.9306483604e+01 0.0000000000e+00 0.0000e+00 -1.0000e+00
       22  1    1    2    0    0 -6.8387273285e+02 +3.6988568388e+03 -1.9836275169e+03 4.2525288893e+03 0.0000000000e+00 0.0000e+00 -1.0000e+00
</event>
<event>
 6      1 +1.4834189e-01 6.55860000e+03 7.81653100e-03 7.20327200e-02
  1000022 -1    0    0    0    0 +0.0000000000e+00 +0.0000000000e+00 +4.4721471353e+01 1.0000100000e+04 1.0000000000e+04 0.0000e+00 -1.0000e+00
  1000022 -1    0    0    0    0 -0.0000000000e+00 -0.0000000000e+00 -4.4721471353e+01 1.0000100000e+04 1.0000000000e+04 0.0000e+00 -1.0000e+00
      -24  1    1    2    0    0 -1.2336743856e+03 +6.9435072330e+03 -3.7687528857e+02 7.0627652402e+03 7.9829010000e+01 0.0000e+00 -1.0000e+00
       24  1    1    2    0    0 -4.4641241836e+03 -3.4971883149e+03 +6.8279043432e+02 5.7123818399e+03 7.9829010000e+01 0.0000e+00 -1.0000e+00
       22  1    1    2    0    0 +7.4245671818e+00 +3.6064957277e+02 +7.3489368899e+01 3.6813574382e+02 0.0000000000e+00 0.0000e+00 1.0000e+00
       22  1    1    2    0    0 +5.6903740021e+03 -3.8069684909e+03 -3.7940451465e+02 6.8569171761e+03 0.0000000000e+00 0.0000e+00 -1.0000e+00
</event>
<event>
 6      1 +1.4834189e-01 1.00008700e+04 7.81653100e-03 6.93867300e-02
  1000022 -1    0    0    0    0 +0.0000000000e+00 +0.0000000000e+00 +4.4721471353e+01 1.0000100000e+04 1.0000000000e+04 0.0000e+00 -1.0000e+00
  1000022 -1    0    0    0    0 -0.0000000000e+00 -0.0000000000e+00 -4.4721471353e+01 1.0000100000e+04 1.0000000000e+04 0.0000e+00 -1.0000e+00
      -24  1    1    2    0    0 +9.6265684741e+02 +7.1400778347e+03 +1.4597809423e+03 7.3515136375e+03 7.9829010000e+01 0.0000e+00 1.0000e+00
       24  1    1    2    0    0 -1.1235025692e+03 -9.2426623262e+03 -1.9876311767e+03 9.5208253458e+03 7.9829010000e+01 0.0000e+00 1.0000e+00
       22  1    1    2    0    0 +2.5218429768e+02 +2.5617564165e+03 +6.2679366918e+02 2.6493514605e+03 0.0000000000e+00 0.0000e+00 1.0000e+00
       22  1    1    2    0    0 -9.1338575899e+01 -4.5917192495e+02 -9.8943434838e+01 4.7850955624e+02 0.0000000000e+00 0.0000e+00 1.0000e+00
</event>
<event>
 6      1 +1.4834189e-01 1.00006800e+04 7.81653100e-03 6.93868500e-02
  1000022 -1    0    0    0    0 +0.0000000000e+00 +0.0000000000e+00 +4.4721471353e+01 1.0000100000e+04 1.0000000000e+04 0.0000e+00 -1.0000e+00
  1000022 -1    0    0    0    0 -0.0000000000e+00 -0.0000000000e+00 -4.4721471353e+01 1.0000100000e+04 1.0000000000e+04 0.0000e+00 -1.0000e+00
      -24  1    1    2    0    0 -9.2305722282e+01 +1.1112370010e+02 -8.9641097716e+01 1.8782177810e+02 7.9829010000e+01 0.0000e+00 0.0000e+00
       24  1    1    2    0    0 +6.7066399663e-01 -5.2241230955e+01 +3.4448994167e+00 9.5467974585e+01 7.9829010000e+01 0.0000e+00 1.0000e+00
       22  1    1    2    0    0 -5.7826411299e+02 -7.7746584116e+03 +6.1101099474e+03 9.9052080428e+03 0.0000000000e+00 0.0000e+00 -1.0000e+00
       22  1    1    2    0    0 +6.6989917127e+02 +7.7157759424e+03 -6.0239137491e+03 9.8117022045e+03 0.0000000000e+00 0.0000e+00 -1.0000e+00
</event>
<event>
 6      1 +1.4834189e-01 1.00206900e+04 7.81653100e-03 6.93747700e-02
  1000022 -1    0    0    0    0 +0.0000000000e+00 +0.0000000000e+00 +4.4721471353e+01 1.0000100000e+04 1.0000000000e+04 0.0000e+00 -1.0000e+00
  1000022 -1    0    0    0    0 -0.0000000000e+00 -0.0000000000e+00 -4.4721471353e+01 1.0000100000e+04 1.0000000000e+04 0.0000e+00 -1.0000e+00
      -24  1    1    2    0    0 +9.6475308263e+03 -9.3474328495e+02 +2.2914058065e+03 9.9601962478e+03 7.9829010000e+01 0.0000e+00 1.0000e+00
       24  1    1    2    0    0 -9.0422409169e+03 +7.4685416362e+02 -2.3271621852e+03 9.3670682953e+03 7.9829010000e+01 0.0000e+00 1.0000e+00
       22  1    1    2    0    0 +1.9033143681e+01 -2.6408159691e+00 +1.9020120212e+00 1.9309378993e+01 0.0000000000e+00 0.0000e+00 1.0000e+00
       22  1    1    2    0    0 -6.2432305308e+02 +1.9052993730e+02 +3.3854366672e+01 6.5362607794e+02 0.0000000000e+00 0.0000e+00 -1.0000e+00
</event>
<event>
 6      1 +1.4834189e-01 1.00656600e+04 7.81653100e-03 6.93477600e-02
  1000022 -1    0    0    0    0 +0.0000000000e+00 +0.0000000000e+00 +4.4721471353e+01 1.0000100000e+04 1.0000000000e+04 0.0000e+00 -1.0000e+00
  1000022 -1    0    0    0    0 -0.0000000000e+00 -0.0000000000e+00 -4.4721471353e+01 1.0000100000e+04 1.0000000000e+04 0.0000e+00 -1.0000e+00
      -24  1    1    2    0    0 +1.1602755294e+03 +2.1362364272e+03 -4.9186955847e+02 2.4815426070e+03 7.9829010000e+01 0.0000e+00 -1.0000e+00
       24  1    1    2    0    0 -2.1914088665e+03 -8.6438595082e+03 +5.9780766917e+02 8.9376913517e+03 7.9829010000e+01 0.0000e+00 -1.0000e+00
       22  1    1    2    0    0 -2.1553567975e+02 -9.7152287710e+02 +5.8319904268e+01 9.9685181507e+02 0.0000000000e+00 0.0000e+00 -1.0000e+00
       22  1    1    2    0    0 +1.2466690169e+03 +7.4791459582e+03 -1.6425801497e+02 7.5841142262e+03 0.0000000000e+00 0.0000e+00 -1.0000e+00
</event>
<event>
 6      1 +1.4834189e-01 1.01008900e+04 7.81653100e-03 6.93267000e-02
  1000022 -1    0    0    0    0 +0.0000000000e+00 +0.0000000000e+00 +4.4721471353e+01 1.0000100000e+04 1.0000000000e+04 0.0000e+00 -1.0000e+00
  1000022 -1    0    0    0    0 -0.0000000000e+00 -0.0000000000e+00 -4.4721471353e+01 1.0000100000e+04 1.0000000000e+04 0.0000e+00 -1.0000e+00
      -24  1    1    2    0    0 +8.4113014921e+02 +3.0817426280e+02 -6.3002001217e+03 6.3640683174e+03 7.9829010000e+01 0.0000e+00 1.0000e+00
       24  1    1    2    0    0 +7.6528106929e+02 -1.1476439353e+03 +4.8190566526e+03 5.0132246517e+03 7.9829010000e+01 0.0000e+00 1.0000e+00
       22  1    1    2    0    0 -1.1379379536e+03 +3.2906654559e+02 +4.9478393864e+03 5.0876617587e+03 0.0000000000e+00 0.0000e+00 1.0000e+00
       22  1    1    2    0    0 -4.6847326490e+02 +5.1040312691e+02 -3.4666959172e+03 3.5352452721e+03 0.0000000000e+00 0.0000e+00 1.0000e+00
</event>
<event>
 6      1 +1.4834189e-01 1.00175000e+04 7.81653100e-03 6.93767000e-02
  1000022 -1    0    0    0    0 +0.0000000000e+00 +0.0000000000e+00 +4.4721471353e+01 1.0000100000e+04 1.0000000000e+04 0.0000e+00 1.0000e+00
  1000022 -1    0    0    0    0 -0.0000000000e+00 -0.0000000000e+00 -4.4721471353e+01 1.0000100000e+04 1.0000000000e+04 0.0000e+00 1.0000e+00
      -24  1    1    2    0    0 -7.2672664096e+03 +6.6991420407e+03 +4.7597520607e+02 9.8956854344e+03 7.9829010000e+01 0.0000e+00 1.0000e+00
       24  1    1    2    0    0 +7.3138737090e+03 -6.7418924903e+03 -5.1232676622e+02 9.9606583301e+03 7.9829010000e+01 0.0000e+00 1.0000e+00
       22  1    1    2    0    0 -6.6185157017e+01 +5.4244040020e+01 -1.5761117385e+01 8.7013238696e+01 0.0000000000e+00 0.0000e+00 1.0000e+00
       22  1    1    2    0    0 +1.9577857618e+01 -1.1493590402e+01 +5.2112677529e+01 5.6842996829e+01 0.0000000000e+00 0.0000e+00 -1.0000e+00
</event>
<event>
 6      1 +1.4834189e-01 1.07861200e+04 7.81653100e-03 6.89333400e-02
  1000022 -1    0    0    0    0 +0.0000000000e+00 +0.0000000000e+00 +4.4721471353e+01 1.0000100000e+04 1.0000000000e+04 0.0000e+00 1.0000e+00
  1000022 -1    0    0    0    0 -0.0000000000e+00 -0.0000000000e+00 -4.4721471353e+01 1.0000100000e+04 1.0000000000e+04 0.0000e+00 1.0000e+00
      -24  1    1    2    0    0 -6.8674474662e+03 +1.9311709759e+03 +5.7361484498e+03 9.1542901280e+03 7.9829010000e+01 0.0000e+00 -1.0000e+00
       24  1    1    2    0    0 +5.4795791802e+03 +6.5346135174e+02 -5.5254251619e+03 7.8095771729e+03 7.9829010000e+01 0.0000e+00 -1.0000e+00
       22  1    1    2    0    0 +1.4452510534e+03 -2.5946394556e+03 -1.9723545892e+02 2.9765426821e+03 0.0000000000e+00 0.0000e+00 -1.0000e+00
       22  1    1    2    0    0 -5.7382767319e+01 +1.0007128026e+01 -1.3487828976e+01 5.9790016951e+01 0.0000000000e+00 0.0000e+00 1.0000e+00
</event>
<event>
 6      1 +1.4834189e-01 1.00016600e+04 7.81653100e-03 6.93862500e-02
  1000022 -1    0    0    0    0 +0.0000000000e+00 +0.0000000000e+00 +4.4721471353e+01 1.0000100000e+04 1.0000000000e+04 0.0000e+00 -1.0000e+00
  1000022 -1    0    0    0    0 -0.0000000000e+00 -0.0000000000e+00 -4.4721471353e+01 1.0000100000e+04 1.0000000000e+04 0.0000e+00 -1.0000e+00
      -24  1    1    2    0    0 -5.3925994606e+02 -6.9102421342e+02 -6.2013805196e+02 1.0766891972e+03 7.9829010000e+01 0.0000e+00 0.0000e+00
       24  1    1    2    0    0 +5.0095212260e+03 +6.5940434646e+03 +5.5149590075e+03 9.9497667135e+03 7.9829010000e+01 0.0000e+00 -1.0000e+00
       22  1    1    2    0    0 +2.4182398798e+01 +3.0975939848e+01 +2.8881860860e+01 4.8769448919e+01 0.0000000000e+00 0.0000e+00 -1.0000e+00
       22  1    1    2    0    0 -4.4944436787e+03 -5.9339951911e+03 -4.9237028164e+03 8.9249746405e+03 0.0000000000e+00 0.0000e+00 -1.0000e+00
</event>
<event>
 6      1 +1.4834189e-01 1.01445600e+04 7.81653100e-03 6.93007000e-02
  1000022 -1    0    0    0    0 +0.0000000000e+00 +0.0000000000e+00 +4.4721471353e+01 1.0000100000e+04 1.0000000000e+04 0.0000e+00 1.0000e+00
  1000022 -1    0    0    0    0 -0.0000000000e+00 -0.0000000000e+00 -4.4721471353e+01 1.0000100000e+04 1.0000000000e+04 0.0000e+00 1.0000e+00
      -24  1    1    2    0    0 +7.0904534944e+03 +4.4070644157e+03 +3.3834799082e+03 9.0083881177e+03 7.9829010000e+01 0.0000e+00 1.0000e+00
       24  1    1    2    0    0 -7.5213822380e+03 -4.5910839163e+03 -4.4133852317e+03 9.8556371774e+03 7.9829010000e+01 0.0000e+00 1.0000e+00
       22  1    1    2    0    0 +4.1590797081e+02 +1.7525751411e+02 +1.0217036565e+03 1.1169480732e+03 0.0000000000e+00 0.0000e+00 1.0000e+00
       22  1    1    2    0    0 +1.5020772874e+01 +8.7619865182e+00 +8.2016670029e+00 1.9226631715e+01 0.0000000000e+00 0.0000e+00 1.0000e+00
</event>
<event>
 6      1 +1.4834189e-01 9.00290600e+03 7.81653100e-03 7.00274400e-02
  1000022 -1    0    0    0    0 +0.0000000000e+00 +0.0000000000e+00 +4.4721471353e+01 1.0000100000e+04 1.0000000000e+04 0.0000e+00 1.0000e+00
  1000022 -1    0    0    0    0 -0.0000000000e+00 -0.0000000000e+00 -4.4721471353e+01 1.0000100000e+04 1.0000000000e+04 0.0000e+00 1.0000e+00
      -24  1    1    2    0    0 -1.3131035211e+03 +3.1317871512e+02 -1.2373927220e+03 1.8329853201e+03 7.9829010000e+01 0.0000e+00 1.0000e+00
       24  1    1    2    0    0 +8.0662522452e+03 +4.6740246342e+03 -1.1347322133e+03 9.3917475174e+03 7.9829010000e+01 0.0000e+00 1.0000e+00
       22  1    1    2    0    0 -6.7140212940e+03 -4.9983622793e+03 +2.4195552708e+03 8.7129762492e+03 0.0000000000e+00 0.0000e+00 1.0000e+00
       22  1    1    2    0    0 -3.9127430174e+01 +1.1158929998e+01 -4.7430335507e+01 6.2490913236e+01 0.0000000000e+00 0.0000e+00 -1.0000e+00
</event>
<event>
 6      1 +1.4834189e-01 1.03562100e+04 7.81653100e-03 6.91765600e-02
  1000022 -1    0    0    0    0 +0.0000000000e+00 +0.0000000000e+00 +4.4721471353e+01 1.0000100000e+04 1.0000000000e+04 0.0000e+00 -1.0000e+00
  1000022 -1    0    0    0    0 -0.0000000000e+00 -0.0000000000e+00 -4.4721471353e+01 1.0000100000e+04 1.0000000000e+04 0.0000e+00 -1.0000e+00
      -24  1    1    2    0    0 -3.3863893271e+02 -2.0177469880e+02 +6.5926441636e+01 4.0756388747e+02 7.9829010000e+01 0.0000e+00 -1.0000e+00
       24  1    1    2    0    0 +7.4772742632e+02 +9.8808783883e+01 -2.4140256708e+03 2.5303659993e+03 7.9829010000e+01 0.0000e+00 -1.0000e+00
       22  1    1    2    0    0 -3.0823510555e+03 -6.2388995005e+03 +6.0734511864e+03 9.2364259495e+03 0.0000000000e+00 0.0000e+00 -1.0000e+00
       22  1    1    2    0    0 +2.6732625619e+03 +6.3418654154e+03 -3.7253519572e+03 7.8258441638e+03 0.0000000000e+00 0.0000e+00 -1.0000e+00
</event>
<event>
 6      1 +1.4834189e-01 1.05653400e+04 7.81653100e-03 6.90567900e-02
  1000022 -1    0    0    0    0 +0.0000000000e+00 +0.0000000000e+00 +4.4721471353e+01 1.0000100000e+04 1.0000000000e+04 0.0000e+00 -1.0000e+00
  1000022 -1    0    0    0    0 -0.0000000000e+00 -0.0000000000e+00 -4.4721471353e+01 1.0000100000e+04 1.0000000000e+04 0.0000e+00 -1.0000e+00
      -24  1    1    2    0    0 -9.0498245746e+03 +1.4696019394e+03 +1.2935937221e+03 9.2595254781e+03 7.9829010000e+01 0.0000e+00 1.0000e+00
       24  1    1    2    0    0 +7.8303694185e+03 -1.6638952552e+03 -3.4527572693e+01 8.0056728309e+03 7.9829010000e+01 0.0000e+00 1.0000e+00
       22  1    1    2    0    0 +1.3706991394e+03 -3.9162182607e+02 -1.0192133304e+02 1.4291856925e+03 0.0000000000e+00 0.0000e+00 1.0000e+00
       22  1    1    2    0    0 -1.5124398340e+02 +5.8591514181e+02 -1.1571448164e+03 1.3058159985e+03 0.0000000000e+00 0.0000e+00 -1.0000e+00
</event>
<event>
 6      1 +1.4834189e-01 1.00324200e+04 7.81653100e-03 6.93677100e-02
  1000022 -1    0    0    0    0 +0.0000000000e+00 +0.0000000000e+00 +4.4721471353e+01 1.0000100000e+04 1.0000000000e+04 0.0000e+00 1.0000e+00
  1000022 -1    0    0    0    0 -0.0000000000e+00 -0.0000000000e+00 -4.4721471353e+01 1.0000100000e+04 1.0000000000e+04 0.0000e+00 1.0000e+00
      -24  1    1    2    0    0 +5.6974091538e+03 +7.2682333124e+03 -3.6035620372e+03 9.9136127913e+03 7.9829010000e+01 0.0000e+00 -1.0000e+00
       24  1    1    2    0    0 -4.5360269678e+03 -6.3226981998e+03 +3.2954319503e+03 8.4509347169e+03 7.9829010000e+01 0.0000e+00 -1.0000e+00
       22  1    1    2    0    0 -1.1930371304e+03 -9.8549564585e+02 +3.2643536411e+02 1.5814864241e+03 0.0000000000e+00 0.0000e+00 -1.0000e+00
       22  1    1    2    0    0 +3.1654944409e+01 +3.9960533301e+01 -1.8305277199e+01 5.4166067797e+01 0.0000000000e+00 0.0000e+00 1.0000e+00
</event>
<event>
 6      1 +1.4834189e-01 1.01211600e+04 7.81653100e-03 6.93146100e-02
  1000022 -1    0    0    0    0 +0.0000000000e+00 +0.0000000000e+00 +4.4721471353e+01 1.0000100000e+04 1.0000000000e+04 0.0000e+00 -1.0000e+00
  1000022 -1    0    0    0    0 -0.0000000000e+00 -0.0000000000e+00 -4.4721471353e+01 1.0000100000e+04 1.0000000000e+04 0.0000e+00 -1.0000e+00
      -24  1    1    2    0    0 +2.9319381242e+03 +6.0725350099e+03 -6.1712489006e+03 9.1412596656e+03 7.9829010000e+01 0.0000e+00 -1.0000e+00
       24  1    1    2    0    0 -1.6598251854e+02 -2.6025780492e+02 +3.7973863492e+02 4.9584112695e+02 7.9829010000e+01 0.0000e+00 0.0000e+00
       22  1    1    2    0    0 -4.1113607956e+02 +5.1412599829e+02 -7.2584142765e+02 9.7990009497e+02 0.0000000000e+00 0.0000e+00 -1.0000e+00
       22  1    1    2    0    0 -2.3548195261e+03 -6.3264032032e+03 +6.5173516933e+03 9.3831991125e+03 0.0000000000e+00 0.0000e+00 -1.0000e+00
</event>
<event>
 6      1 +1.4834189e-01 1.00349600e+04 7.81653100e-03 6.93661900e-02
  1000022 -1    0    0    0    0 +0.0000000000e+00 +0.0000000000e+00 +4.4721471353e+01 1.0000100000e+04 1.0000000000e+04 0.0000e+00 -1.0000e+00
  1000022 -1    0    0    0    0 -0.0000000000e+00 -0.0000000000e+00 -4.4721471353e+01 1.0000100000e+04 1.0000000000e+04 0.0000e+00 -1.0000e+00
      -24  1    1    2    0    0 +5.8375055240e+03 +8.4007264406e+02 +7.8968418507e+03 9.8564028264e+03 7.9829010000e+01 0.0000e+00 1.0000e+00
       24  1    1    2    0    0 -5.5351566668e+02 +3.0974663228e+02 -8.4190098538e+02 1.0571151827e+03 7.9829010000e+01 0.0000e+00 -1.0000e+00
       22  1    1    2    0    0 -5.3066943104e+03 -1.2152585367e+03 -7.1388940087e+03 8.9778430306e+03 0.0000000000e+00 0.0000e+00 1.0000e+00
       22  1    1    2    0    0 +2.2704453106e+01 +6.5439260392e+01 +8.3953143345e+01 1.0883896025e+02 0.0000000000e+00 0.0000e+00 -1.0000e+00
</event>
<event>
 6      1 +1.4834189e-01 8.99542000e+03 7.81653100e-03 7.00325500e-02
  1000022 -1    0    0    0    0 +0.0000000000e+00 +0.0000000000e+00 +4.4721471353e+01 1.0000100000e+04 1.0000000000e+04 0.0000e+00 1.0000e+00
  1000022 -1    0    0    0    0 -0.0000000000e+00 -0.0000000000e+00 -4.4721471353e+01 1.0000100000e+04 1.0000000000e+04 0.0000e+00 1.0000e+00
      -24  1    1    2    0    0 -6.5833266776e+02 +8.2179843718e+02 -1.5903530209e+03 1.9090180656e+03 7.9829010000e+01 0.0000e+00 1.0000e+00
       24  1    1    2    0    0 +6.7428025076e+03 +4.4778621371e+03 +4.7505588276e+03 9.3856708242e+03 7.9829010000e+01 0.0000e+00 1.0000e+00
       22  1    1    2    0    0 +1.4752687876e+01 +1.0645429436e+01 +8.2164782131e+00 1.9961900753e+01 0.0000000000e+00 0.0000e+00 -1.0000e+00
       22  1    1    2    0    0 -6.0992225277e+03 -5.3103060037e+03 -3.1684222849e+03 8.6855492095e+03 0.0000000000e+00 0.0000e+00 1.0000e+00
</event>
<event>
 6      1 +1.4834189e-01 1.00431500e+04 7.81653100e-03 6.93612700e-02
  1000022 -1    0    0    0    0 +0.0000000000e+00 +0.0000000000e+00 +4.4721471353e+01 1.0000100000e+04 1.0000000000e+04 0.0000e+00 -1.0000e+00
  1000022 -1    0    0    0    0 -0.0000000000e+00 -0.0000000000e+00 -4.4721471353e+01 1.0000100000e+04 1.0000000000e+04 0.0000e+00 -1.0000e+00
      -24  1    1    2    0    0 +6.3835663498e+02 -1.1774606971e+03 +8.4499278466e+02 1.5856539230e+03 7.9829010000e+01 0.0000e+00 -1.0000e+00
       24  1    1    2    0    0 -3.4119758528e+02 +3.2374294550e+02 -1.6555901277e+02 5.0498291507e+02 7.9829010000e+01 0.0000e+00 1.0000e+00
       22  1    1    2    0    0 -5.3741942846e+03 +7.3927551943e+03 -2.4097299286e+03 9.4520681283e+03 0.0000000000e+00 0.0000e+00 -1.0000e+00
       22  1    1    2    0    0 +5.0770352349e+03 -6.5390374427e+03 +1.7302961567e+03 8.4574950336e+03 0.0000000000e+00 0.0000e+00 -1.0000e+00
</event>
<event>
 6      1 +1.4834189e-01 1.01852100e+04 7.81653100e-03 6.92766200e-02
  1000022 -1    0    0    0    0 +0.0000000000e+00 +0.0000000000e+00 +4.4721471353e+01 1.0000100000e+04 1.0000000000e+04 0.0000e+00 -1.0000e+00
  1000022 -1    0    0    0    0 -0.0000000000e+00 -0.0000000000e+00 -4.4721471353e+01 1.0000100000e+04 1.0000000000e+04 0.0000e+00 -1.0000e+00
      -24  1    1    2    0    0 +6.5977273296e+03 +6.7123342562e+03 -2.7188135361e+03 9.7971300286e+03 7.9829010000e+01 0.0000e+00 1.0000e+00
       24  1    1    2    0    0 -3.3799432755e+03 -5.2802266592e+03 +2.1179567278e+03 6.6179244095e+03 7.9829010000e+01 0.0000e+00 1.0000e+00
       22  1    1    2    0    0 -1.1376056237e+01 +6.0966937117e+00 -1.2349098806e+01 1.7862938477e+01 0.0000000000e+00 0.0000e+00 -1.0000e+00
       22  1    1    2    0    0 -3.2064079979e+03 -1.4382042907e+03 +6.1320590707e+02 3.5672826234e+03 0.0000000000e+00 0.0000e+00 1.0000e+00
</event>
<event>
 6      1 +1.4834189e-01 5.58628300e+03 7.81653100e-03 7.30936200e-02
  1000022 -1    0    0    0    0 +0.0000000000e+00 +0.0000000000e+00 +4.4721471353e+01 1.0000100000e+04 1.0000000000e+04 0.0000e+00 -1.0000e+00
  1000022 -1    0    0    0    0 -0.0000000000e+00 -0.0000000000e+00 -4.4721471353e+01 1.0000100000e+04 1.0000000000e+04 0.0000e+00 -1.0000e+00
      -24  1    1    2    0    0 -2.6246467647e+03 +2.7053315556e+03 -5.4352836572e+03 6.6148522712e+03 7.9829010000e+01 0.0000e+00 1.0000e+00
       24  1    1    2    0    0 +4.6440406506e+03 -4.9501301509e+03 +1.1219432030e+03 6.8801185525e+03 7.9829010000e+01 0.0000e+00 1.0000e+00
       22  1    1    2    0    0 -1.6531940268e+03 +1.8779239420e+03 +5.0316847711e+03 5.6193861283e+03 0.0000000000e+00 0.0000e+00 1.0000e+00
       22  1    1    2    0    0 -3.6619985910e+02 +3.6687465324e+02 -7.1834431703e+02 8.8584304806e+02 0.0000000000e+00 0.0000e+00 -1.0000e+00
</event>
<event>
 6      1 +1.4834189e-01 1.01294900e+04 7.81653100e-03 6.93096500e-02
  1000022 -1    0    0    0    0 +0.0000000000e+00 +0.0000000000e+00 +4.4721471353e+01 1.0000100000e+04 1.0000000000e+04 0.0000e+00 -1.0000e+00
  1000022 -1    0    0    0    0 -0.0000000000e+00 -0.0000000000e+00 -4.4721471353e+01 1.0000100000e+04 1.0000000000e+04 0.0000e+00 -1.0000e+00
      -24  1    1    2    0    0 -6.4876954277e+03 -1.4291291119e+03 -1.4793472336e+03 6.8064265874e+03 7.9829010000e+01 0.0000e+00 1.0000e+00
       24  1    1    2    0    0 +9.4566377867e+03 +1.2492386287e+03 +2.5369142754e+03 9.8707093004e+03 7.9829010000e+01 0.0000e+00 1.0000e+00
       22  1    1    2    0    0 -1.8899487074e+03 -3.4188832648e+02 -4.2198697192e+02 1.9664350355e+03 0.0000000000e+00 0.0000e+00 1.0000e+00
       22  1    1    2    0    0 -1.0789936516e+03 +5.2177880972e+02 -6.3558006988e+02 1.3566290767e+03 0.0000000000e+00 0.0000e+00 -1.0000e+00
</event>
<event>
 6      1 +1.4834189e-01 1.00002700e+04 7.81653100e-03 6.93870900e-02
  1000022 -1    0    0    0    0 +0.0000000000e+00 +0.0000000000e+00 +4.4721471353e+01 1.0000100000e+04 1.0000000000e+04 0.0000e+00 -1.0000e+00
  1000022 -1    0    0    0    0 -0.0000000000e+00 -0.0000000000e+00 -4.4721471353e+01 1.0000100000e+04 1.0000000000e+04 0.0000e+00 -1.0000e+00
      -24  1    1    2    0    0 +5.1675063307e+03 -3.1365606449e+03 +7.6485371889e+03 9.7492373115e+03 7.9829010000e+01 0.0000e+00 1.0000e+00
       24  1    1    2    0    0 -5.1554500577e+03 +3.1077800769e+03 -7.6028810581e+03 9.6977902307e+03 7.9829010000e+01 0.0000e+00 1.0000e+00
       22  1    1    2    0    0 +1.3902213093e+02 -8.1738763468e+01 +1.9193983457e+02 2.5069758363e+02 0.0000000000e+00 0.0000e+00 -1.0000e+00
       22  1    1    2    0    0 -1.5107840385e+02 +1.1051933144e+02 -2.3759596534e+02 3.0247487413e+02 0.0000000000e+00 0.0000e+00 1.0000e+00
</event>
<event>
 6      1 +1.4834189e-01 1.00984500e+04 7.81653100e-03 6.93281500e-02
  1000022 -1    0    0    0    0 +0.0000000000e+00 +0.0000000000e+00 +4.4721471353e+01 1.0000100000e+04 1.0000000000e+04 0.0000e+00 -1.0000e+00
  1000022 -1    0    0    0    0 -0.0000000000e+00 -0.0000000000e+00 -4.4721471353e+01 1.0000100000e+04 1.0000000000e+04 0.0000e+00 -1.0000e+00
      -24  1    1    2    0    0 -6.5060363642e+01 -5.3225289429e+02 +9.5831743834e+02 1.1010317788e+03 7.9829010000e+01 0.0000e+00 -1.0000e+00
       24  1    1    2    0    0 +9.1588388197e+02 +2.7818319201e+02 -1.5122293160e+03 1.7914908173e+03 7.9829010000e+01 0.0000e+00 0.0000e+00
       22  1    1    2    0    0 +4.1267595424e+03 +1.1283607434e+03 -6.8900645773e+03 8.1102609185e+03 0.0000000000e+00 0.0000e+00 -1.0000e+00
       22  1    1    2    0    0 -4.9775830607e+03 -8.7429104115e+02 +7.4439764549e+03 8.9974164854e+03 0.0000000000e+00 0.0000e+00 -1.0000e+00
</event>
<event>
 6      1 +1.4834189e-01 6.71310700e+03 7.81653100e-03 7.18813600e-02
  1000022 -1    0    0    0    0 +0.0000000000e+00 +0.0000000000e+00 +4.4721471353e+01 1.0000100000e+04 1.0000000000e+04 0.0000e+00 -1.0000e+00
  1000022 -1    0    0    0    0 -0.0000000000e+00 -0.0000000000e+00 -4.4721471353e+01 1.0000100000e+04 1.0000000000e+04 0.0000e+00 -1.0000e+00
      -24  1    1    2    0    0 -4.1489002964e+03 -1.7013850281e+03 +3.1209861765e+03 5.4639740179e+03 7.9829010000e+01 0.0000e+00 1.0000e+00
       24  1    1    2    0    0 +9.3143896423e+02 +7.4732525762e+03 -1.3718621777e+03 7.6554203750e+03 7.9829010000e+01 0.0000e+00 1.0000e+00
       22  1    1    2    0    0 +3.2479340551e+03 -5.7696302492e+03 -1.7550871110e+03 6.8496744161e+03 0.0000000000e+00 0.0000e+00 1.0000e+00
       22  1    1    2    0    0 -3.0472722976e+01 -2.2372989271e+00 +5.9631121752e+00 3.1131191093e+01 0.0000000000e+00 0.0000e+00 1.0000e+00
</event>
<event>
 6      1 +1.4834189e-01 6.39355500e+03 7.81653100e-03 7.21991300e-02
  1000022 -1    0    0    0    0 +0.0000000000e+00 +0.0000000000e+00 +4.4721471353e+01 1.0000100000e+04 1.0000000000e+04 0.0000e+00 -1.0000e+00
  1000022 -1    0    0    0    0 -0.0000000000e+00 -0.0000000000e+00 -4.4721471353e+01 1.0000100000e+04 1.0000000000e+04 0.0000e+00 -1.0000e+00
      -24  1    1    2    0    0 +5.0908893478e+03 -6.0448577608e+03 -1.6557692967e+03 8.0749863365e+03 7.9829010000e+01 0.0000e+00 -1.0000e+00
       24  1    1    2    0    0 -7.0514302271e+02 +5.5918630654e+03 -1.9778998417e+03 5.9736604925e+03 7.9829010000e+01 0.0000e+00 -1.0000e+00
       22  1    1    2    0    0 -4.4968323894e+03 +4.1509449756e+02 +3.6798873343e+03 5.8254077774e+03 0.0000000000e+00 0.0000e+00 -1.0000e+00
       22  1    1    2    0    0 +1.1108606429e+02 +3.7900197786e+01 -4.6218195967e+01 1.2614539354e+02 0.0000000000e+00 0.0000e+00 1.0000e+00
</event>
<event>
 6      1 +1.4834189e-01 1.00008900e+04 7.81653100e-03 6.93867200e-02
  1000022 -1    0    0    0    0 +0.0000000000e+00 +0.0000000000e+00 +4.4721471353e+01 1.0000100000e+04 1.0000000000e+04 0.0000e+00 1.0000e+00
  1000022 -1    0    0    0    0 -0.0000000000e+00 -0.0000000000e+00 -4.4721471353e+01 1.0000100000e+04 1.0000000000e+04 0.0000e+00 1.0000e+00
      -24  1    1    2    0    0 -4.6140435889e+03 -3.3654705390e+03 -7.7125069377e+03 9.5971311403e+03 7.9829010000e+01 0.0000e+00 -1.0000e+00
       24  1    1    2    0    0 +4.6359966825e+03 +3.4264146123e+03 +7.7873136129e+03 9.6892418853e+03 7.9829010000e+01 0.0000e+00 -1.0000e+00
       22  1    1    2    0    0 -1.6811282162e+02 -1.6744340643e+02 -3.2667896920e+02 4.0375532699e+02 0.0000000000e+00 0.0000e+00 -1.0000e+00
       22  1    1    2    0    0 +1.4615972798e+02 +1.0649933322e+02 +2.5187229394e+02 3.1007164739e+02 0.0000000000e+00 0.0000e+00 1.0000e+00
</event>
<event>
 6      1 +1.4834189e-01 1.00542900e+04 7.81653100e-03 6.93545800e-02
  1000022 -1    0    0    0    0 +0.0000000000e+00 +0.0000000000e+00 +4.4721471353e+01 1.0000100000e+04 1.0000000000e+04 0.0000e+00 1.0000e+00
  1000022 -1    0    0    0    0 -0.0000000000e+00 -0.0000000000e+00 -4.4721471353e+01 1.0000100000e+04 1.0000000000e+04 0.0000e+00 1.0000e+00
      -24  1    1    2    0    0 -6.4806578297e+03 +6.0440742181e+03 +4.5149713709e+03 9.9459086166e+03 7.9829010000e+01 0.0000e+00 1.0000e+00
       24  1    1    2    0    0 +6.3322122920e+03 -6.0164112800e+03 -4.2134902898e+03 9.6981436519e+03 7.9829010000e+01 0.0000e+00 1.0000e+00
       22  1    1    2    0    0 +3.9823623382e+01 -3.7014829076e+01 -2.6788443515e+01 6.0610554005e+01 0.0000000000e+00 0.0000e+00 -1.0000e+00
       22  1    1    2    0    0 +1.0862191431e+02 +9.3518909279e+00 -2.7469263758e+02 2.9553717748e+02 0.0000000000e+00 0.0000e+00 -1.0000e+00
</event>
<event>
 6      1 +1.4834189e-01 1.00507500e+04 7.81653100e-03 6.93567000e-02
  1000022 -1    0    0    0    0 +0.0000000000e+00 +0.0000000000e+00 +4.4721471353e+01 1.0000100000e+04 1.0000000000e+04 0.0000e+00 1.0000e+00
  1000022 -1    0    0    0    0 -0.0000000000e+00 -0.0000000000e+00 -4.4721471353e+01 1.0000100000e+04 1.0000000000e+04 0.0000e+00 1.0000e+00
      -24  1    1    2    0    0 -8.7101686321e+03 +2.0846167198e+03 +4.3327307658e+03 9.9494518959e+03 7.9829010000e+01 0.0000e+00 1.0000e+00
       24  1    1    2    0    0 +8.1758041558e+03 -1.9289094077e+03 -3.6306348193e+03 9.1516308360e+03 7.9829010000e+01 0.0000e+00 1.0000e+00
       22  1    1    2    0    0 +5.1065831276e+02 -1.5100492798e+02 -6.9136485241e+02 8.7267391379e+02 0.0000000000e+00 0.0000e+00 1.0000e+00
       22  1    1    2    0    0 +2.3706163571e+01 -4.7023841300e+00 -1.0731094105e+01 2.6443354334e+01 0.0000000000e+00 0.0000e+00 -1.0000e+00
</event>
<event>
 6      1 +1.4834189e-01 1.00066000e+04 7.81653100e-03 6.93832700e-02
  1000022 -1    0    0    0    0 +0.0000000000e+00 +0.0000000000e+00 +4.4721471353e+01 1.0000100000e+04 1.0000000000e+04 0.0000e+00 -1.0000e+00
  1000022 -1    0    0    0    0 -0.0000000000e+00 -0.0000000000e+00 -4.4721471353e+01 1.0000100000e+04 1.0000000000e+04 0.0000e+00 -1.0000e+00
      -24  1    1    2    0    0 -4.9350441683e+03 +2.1935356681e+03 -7.2906993078e+03 9.0734188010e+03 7.9829010000e+01 0.0000e+00 1.0000e+00
       24  1    1    2    0    0 +5.2796246038e+03 -2.1831301690e+03 +8.0198485934e+03 9.8470725306e+03 7.9829010000e+01 0.0000e+00 1.0000e+00
       22  1    1    2    0    0 +6.7411420883e+01 -1.1554289163e+02 +8.6908662686e+01 1.5952296111e+02 0.0000000000e+00 0.0000e+00 1.0000e+00
       22  1    1    2    0    0 -4.1199185636e+02 +1.0513739247e+02 -8.1605794829e+02 9.2018570733e+02 0.0000000000e+00 0.0000e+00 -1.0000e+00
</event>
<event>
 6      1 +1.4834189e-01 1.02688900e+04 7.81653100e-03 6.92274100e-02
  1000022 -1    0    0    0    0 +0.0000000000e+00 +0.0000000000e+00 +4.4721471353e+01 1.0000100000e+04 1.0000000000e+04 0.0000e+00 -1.0000e+00
  1000022 -1    0    0    0    0 -0.0000000000e+00 -0.0000000000e+00 -4.4721471353e+01 1.0000100000e+04 1.0000000000e+04 0.0000e+00 -1.0000e+00
      -24  1    1    2    0    0 -1.8609783573e+03 +7.1774683755e+03 -6.3018003438e+03 9.7313078757e+03 7.9829010000e+01 0.0000e+00 1.0000e+00
       24  1    1    2    0    0 +2.0973257254e+03 -3.4188726082e+03 +2.3054561365e+03 4.6269823619e+03 7.9829010000e+01 0.0000e+00 -1.0000e+00
       22  1    1    2    0    0 -3.9133366229e+02 -3.7005422647e+03 +4.0163097575e+03 5.4752076816e+03 0.0000000000e+00 0.0000e+00 1.0000e+00
       22  1    1    2    0    0 +1.5498629418e+02 -5.8053502548e+01 -1.9965550125e+01 1.6670208078e+02 0.0000000000e+00 0.0000e+00 1.0000e+00
</event>
<event>
 6      1 +1.4834189e-01 1.00714700e+04 7.81653100e-03 6.93442800e-02
  1000022 -1    0    0    0    0 +0.0000000000e+00 +0.0000000000e+00 +4.4721471353e+01 1.0000100000e+04 1.0000000000e+04 0.0000e+00 -1.0000e+00
  1000022 -1    0    0    0    0 -0.0000000000e+00 -0.0000000000e+00 -4.4721471353e+01 1.0000100000e+04 1.0000000000e+04 0.0000e+00 -1.0000e+00
      -24  1    1    2    0    0 -5.1834510954e+03 -3.2161727533e+03 -7.5232787929e+03 9.6859707260e+03 7.9829010000e+01 0.0000e+00 -1.0000e+00
       24  1    1    2    0    0 +5.2687377280e+03 +3.5541900171e+03 +7.5674207625e+03 9.8825145379e+03 7.9829010000e+01 0.0000e+00 -1.0000e+00
       22  1    1    2    0    0 +3.7418907117e+01 +2.2622833868e+01 +1.4958784668e+01 4.6213985554e+01 0.0000000000e+00 0.0000e+00 1.0000e+00
       22  1    1    2    0    0 -1.2270553965e+02 -3.6064009768e+02 -5.9100754238e+01 3.8550075054e+02 0.0000000000e+00 0.0000e+00 -1.0000e+00
</event>
<event>
 6      1 +1.4834189e-01 1.00577200e+04 7.81653100e-03 6.93525200e-02
  1000022 -1    0    0    0    0 +0.0000000000e+00 +0.0000000000e+00 +4.4721471353e+01 1.0000100000e+04 1.0000000000e+04 0.0000e+00 -1.0000e+00
  1000022 -1    0    0    0    0 -0.0000000000e+00 -0.0000000000e+00 -4.4721471353e+01 1.0000100000e+04 1.0000000000e+04 0.0000e+00 -1.0000e+00
      -24  1    1    2    0    0 +5.1014590295e+01 +4.6300054211e+00 -2.3955186306e+02 2.5764644633e+02 7.9829010000e+01 0.0000e+00 -1.0000e+00
       24  1    1    2    0    0 +1.1323381757e+03 -7.7642557226e+03 +6.0491123950e+03 9.9077742257e+03 7.9829010000e+01 0.0000e+00 1.0000e+00
       22  1    1    2    0    0 +4.0052207689e+00 -2.8485026671e+01 +1.9416282818e+01 3.4704907093e+01 0.0000000000e+00 0.0000e+00 1.0000e+00
       22  1    1    2    0    0 -1.1873579867e+03 +7.7881107439e+03 -5.8289768147e+03 9.8000744208e+03 0.0000000000e+00 0.0000e+00 1.0000e+00
</event>
<event>
 6      1 +1.4834189e-01 1.01235500e+04 7.81653100e-03 6.93131900e-02
  1000022 -1    0    0    0    0 +0.0000000000e+00 +0.0000000000e+00 +4.4721471353e+01 1.0000100000e+04 1.0000000000e+04 0.0000e+00 -1.0000e+00
  1000022 -1    0    0    0    0 -0.0000000000e+00 -0.0000000000e+00 -4.4721471353e+01 1.0000100000e+04 1.0000000000e+04 0.0000e+00 -1.0000e+00
      -24  1    1    2    0    0 +6.7937251530e+01 +3.7325356435e+02 +9.7400690486e+02 1.0483300124e+03 7.9829010000e+01 0.0000e+00 1.0000e+00
       24  1    1    2    0    0 -2.2265988622e+03 -3.3065541782e+03 -9.0360802280e+03 9.8766472846e+03 7.9829010000e+01 0.0000e+00 1.0000e+00
       22  1    1    2    0    0 +1.9632969276e+03 +2.6345011019e+03 +8.0751539444e+03 8.7179838328e+03 0.0000000000e+00 0.0000e+00 1.0000e+00
       22  1    1    2    0    0 +1.9536468311e+02 +2.9879951190e+02 -1.3080621244e+01 3.5723887018e+02 0.0000000000e+00 0.0000e+00 1.0000e+00
</event>
<event>
 6      1 +1.4834189e-01 1.00447500e+04 7.81653100e-03 6.93603000e-02
  1000022 -1    0    0    0    0 +0.0000000000e+00 +0.0000000000e+00 +4.4721471353e+01 1.0000100000e+04 1.0000000000e+04 0.0000e+00 -1.0000e+00
  1000022 -1    0    0    0    0 -0.0000000000e+00 -0.0000000000e+00 -4.4721471353e+01 1.0000100000e+04 1.0000000000e+04 0.0000e+00 -1.0000e+00
      -24  1    1    2    0    0 +2.3425221327e+02 -3.1571458042e+01 -1.7447672744e+02 3.0444318952e+02 7.9829010000e+01 0.0000e+00 1.0000e+00
       24  1    1    2    0    0 -4.8135063833e+03 -1.3180993383e+03 -5.9317284506e+02 5.0264755308e+03 7.9829010000e+01 0.0000e+00 1.0000e+00
       22  1    1    2    0    0 +9.4082909787e+03 +2.3021126652e+03 +1.0285360304e+03 9.7403053457e+03 0.0000000000e+00 0.0000e+00 1.0000e+00
       22  1    1    2    0    0 -4.8290368087e+03 -9.5244186890e+02 -2.6088645795e+02 4.9289759339e+03 0.0000000000e+00 0.0000e+00 1.0000e+00
</event>
<event>
 6      1 +1.4834189e-01 1.00085800e+04 7.81653100e-03 6.93820800e-02
  1000022 -1    0    0    0    0 +0.0000000000e+00 +0.0000000000e+00 +4.4721471353e+01 1.0000100000e+04 1.0000000000e+04 0.0000e+00 -1.0000e+00
  1000022 -1    0    0    0    0 -0.0000000000e+00 -0.0000000000e+00 -4.4721471353e+01 1.0000100000e+04 1.0000000000e+04 0.0000e+00 -1.0000e+00
      -24  1    1    2    0    0 -5.7068319113e+03 -6.3533712661e+03 +4.6047661016e+03 9.7027573623e+03 7.9829010000e+01 0.0000e+00 -1.0000e+00
       24  1    1    2    0    0 +5.8050159462e+03 +6.2928446820e+03 -4.5911151647e+03 9.7150818552e+03 7.9829010000e+01 0.0000e+00 -1.0000e+00
       22  1    1    2    0    0 -2.5846170342e+02 -1.5590101508e+02 +4.9165546678e+01 3.0581829510e+02 0.0000000000e+00 0.0000e+00 1.0000e+00
       22  1    1    2    0    0 +1.6027766852e+02 +2.1642759927e+02 -6.2816483589e+01 2.7654248745e+02 0.0000000000e+00 0.0000e+00 -1.0000e+00
</event>
<event>
 6      1 +1.4834189e-01 1.00168400e+04 7.81653100e-03 6.93771000e-02
  1000022 -1    0    0    0    0 +0.0000000000e+00 +0.0000000000e+00 +4.4721471353e+01 1.0000100000e+04 1.0000000000e+04 0.0000e+00 -1.0000e+00
  1000022 -1    0    0    0    0 -0.0000000000e+00 -0.0000000000e+00 -4.4721471353e+01 1.0000100000e+04 1.0000000000e+04 0.0000e+00 -1.0000e+00
      -24  1    1    2    0    0 +3.3424685578e+03 -8.8378248763e+03 +3.0981210795e+03 9.9440420101e+03 7.9829010000e+01 0.0000e+00 1.0000e+00
       24  1    1    2    0    0 -1.4592086276e+01 +5.1403031503e+02 -1.6940864287e+02 5.4727694349e+02 7.9829010000e+01 0.0000e+00 -1.0000e+00
       22  1    1    2    0    0 +8.7011487788e+00 -3.5332664262e+01 +1.4897003689e+01 3.9319560944e+01 0.0000000000e+00 0.0000e+00 1.0000e+00
       22  1    1    2    0    0 -3.3365776203e+03 +8.3591272256e+03 -2.9436094404e+03 9.4695614855e+03 0.0000000000e+00 0.0000e+00 1.0000e+00
</event>
<event>
 6      1 +1.4834189e-01 1.00278200e+04 7.81653100e-03 6.93704800e-02
  1000022 -1    0    0    0    0 +0.0000000000e+00 +0.0000000000e+00 +4.4721471353e+01 1.0000100000e+04 1.0000000000e+04 0.0000e+00 -1.0000e+00
  1000022 -1    0    0    0    0 -0.0000000000e+00 -0.0000000000e+00 -4.4721471353e+01 1.0000100000e+04 1.0000000000e+04 0.0000e+00 -1.0000e+00
      -24  1    1    2    0    0 +7.0159653701e+02 -8.4919059774e+02 +6.8221741394e+02 1.2981354485e+03 7.9829010000e+01 0.0000e+00 -1.0000e+00
       24  1    1    2    0    0 -5.6735538812e+03 +7.6745723942e+03 -2.8902707009e+03 9.9723774734e+03 7.9829010000e+01 0.0000e+00 1.0000e+00
       22  1    1    2    0    0 +9.7093161533e+00 -4.1215510259e+00 +2.0507505821e+00 1.0745398130e+01 0.0000000000e+00 0.0000e+00 -1.0000e+00
       22  1    1    2    0    0 +4.9622480280e+03 -6.8212602454e+03 +2.2060025364e+03 8.7189416799e+03 0.0000000000e+00 0.0000e+00 1.0000e+00
</event>
<event>
 6      1 +1.4834189e-01 9.77722300e+03 7.81653100e-03 6.95235700e-02
  1000022 -1    0    0    0    0 +0.0000000000e+00 +0.0000000000e+00 +4.4721471353e+01 1.0000100000e+04 1.0000000000e+04 0.0000e+00 1.0000e+00
  1000022 -1    0    0    0    0 -0.0000000000e+00 -0.0000000000e+00 -4.4721471353e+01 1.0000100000e+04 1.0000000000e+04 0.0000e+00 1.0000e+00
      -24  1    1    2    0    0 -1.5541180686e+02 +2.6829016746e+02 +2.5006999801e+02 4.0625129958e+02 7.9829010000e+01 0.0000e+00 -1.0000e+00
       24  1    1    2    0    0 -4.3726463874e+03 -2.0954398855e+03 -8.6095650118e+03 9.8813909500e+03 7.9829010000e+01 0.0000e+00 1.0000e+00
       22  1    1    2    0    0 +4.5565769415e+03 +1.8161493929e+03 +8.3421580769e+03 9.6774166708e+03 0.0000000000e+00 0.0000e+00 1.0000e+00
       22  1    1    2    0    0 -2.8518747177e+01 +1.1000325213e+01 +1.7336936944e+01 3.5141079635e+01 0.0000000000e+00 0.0000e+00 -1.0000e+00
</event>
<event>
 6      1 +1.4834189e-01 9.14440100e+03 7.81653100e-03 6.99316400e-02
  1000022 -1    0    0    0    0 +0.0000000000e+00 +0.0000000000e+00 +4.4721471353e+01 1.0000100000e+04 1.0000000000e+04 0.0000e+00 -1.0000e+00
  1000022 -1    0    0    0    0 -0.0000000000e+00 -0.0000000000e+00 -4.4721471353e+01 1.0000100000e+04 1.0000000000e+04 0.0000e+00 -1.0000e+00
      -24  1    1    2    0    0 -6.7387645315e+03 -4.6811929162e+03 +2.0034277061e+03 8.4465738483e+03 7.9829010000e+01 0.0000e+00 -1.0000e+00
       24  1    1    2    0    0 +1.1246143681e+03 +4.1787271582e+02 +1.1291037422e+03 1.6494311186e+03 7.9829010000e+01 0.0000e+00 -1.0000e+00
       22  1    1    2    0    0 -8.1848561837e+02 -5.9668606675e+02 +4.1683399885e+02 1.0953097974e+03 0.0000000000e+00 0.0000e+00 -1.0000e+00
       22  1    1    2    0    0 +6.4326357818e+03 +4.8600062671e+03 -3.5493654471e+03 8.8088852357e+03 0.0000000000e+00 0.0000e+00 -1.0000e+00
</event>
<event>
 6      1 +1.4834189e-01 1.00003200e+04 7.81653100e-03 6.93870600e-02
  1000022 -1    0    0    0    0 +0.0000000000e+00 +0.0000000000e+00 +4.4721471353e+01 1.0000100000e+04 1.0000000000e+04 0.0000e+00 -1.0000e+00
  1000022 -1    0    0    0    0 -0.0000000000e+00 -0.0000000000e+00 -4.4721471353e+01 1.0000100000e+04 1.0000000000e+04 0.0000e+00 -1.0000e+00
      -24  1    1    2    0    0 -8.7576779707e+03 -9.1958558710e+02 -4.5190600744e+03 9.8980219093e+03 7.9829010000e+01 0.0000e+00 -1.0000e+00
       24  1    1    2    0    0 +8.6951097437e+03 +9.0820923448e+02 +4.4742324187e+03 9.8211458535e+03 7.9829010000e+01 0.0000e+00 -1.0000e+00
       22  1    1    2    0    0 -8.9716513588e+01 -8.3837436647e+00 -4.7491361932e+01 1.0185661209e+02 0.0000000000e+00 0.0000e+00 1.0000e+00
       22  1    1    2    0    0 +1.5228474054e+02 +1.9760096289e+01 +9.2319017653e+01 1.7917562510e+02 0.0000000000e+00 0.0000e+00 -1.0000e+00
</event>
<event>
 6      1 +1.4834189e-01 9.79894900e+03 7.81653100e-03 6.95101100e-02
  1000022 -1    0    0    0    0 +0.0000000000e+00 +0.0000000000e+00 +4.4721471353e+01 1.0000100000e+04 1.0000000000e+04 0.0000e+00 1.0000e+00
  1000022 -1    0    0    0    0 -0.0000000000e+00 -0.0000000000e+00 -4.4721471353e+01 1.0000100000e+04 1.0000000000e+04 0.0000e+00 1.0000e+00
      -24  1    1    2    0    0 +6.5765314013e+03 +1.6516723263e+03 +6.2972896285e+03 9.2542431393e+03 7.9829010000e+01 0.0000e+00 1.0000e+00
       24  1    1    2    0    0 +1.0216344629e+01 +1.8278052604e+02 -4.1940663378e+02 4.6452953587e+02 7.9829010000e+01 0.0000e+00 -1.0000e+00
       22  1    1    2    0    0 +6.2527540201e+02 +1.0614431177e+02 +1.8623059168e+02 6.6099756169e+02 0.0000000000e+00 0.0000e+00 1.0000e+00
       22  1    1    2    0    0 -7.2120231479e+03 -1.9405971641e+03 -6.0641135864e+03 9.6204297632e+03 0.0000000000e+00 0.0000e+00 1.0000e+00
</event>
<event>
 6      1 +1.4834189e-01 1.04653200e+04 7.81653100e-03 6.91137200e-02
  1000022 -1    0    0    0    0 +0.0000000000e+00 +0.0000000000e+00 +4.4721471353e+01 1.0000100000e+04 1.0000000000e+04 0.0000e+00 -1.0000e+00
  1000022 -1    0    0    0    0 -0.0000000000e+00 -0.0000000000e+00 -4.4721471353e+01 1.0000100000e+04 1.0000000000e+04 0.0000e+00 -1.0000e+00
      -24  1    1    2    0    0 +1.0388785800e+03 +5.8539655315e+03 +5.2397907324e+02 5.9690123042e+03 7.9829010000e+01 0.0000e+00 -1.0000e+00
       24  1    1    2    0    0 -7.9277004902e+02 -9.2104489353e+03 -2.3338383655e+03 9.5348847989e+03 7.9829010000e+01 0.0000e+00 -1.0000e+00
       22  1    1    2    0    0 -7.3723092086e+02 +7.3168499727e+02 +1.4764662114e+03 1.8052215485e+03 0.0000000000e+00 0.0000e+00 1.0000e+00
       22  1    1    2    0    0 +4.9112238984e+02 +2.6247984066e+03 +3.3339308082e+02 2.6910813484e+03 0.0000000000e+00 0.0000e+00 -1.0000e+00
</event>
<event>
 6      1 +1.4834189e-01 1.00059000e+04 7.81653100e-03 6.93836900e-02
  1000022 -1    0    0    0    0 +0.0000000000e+00 +0.0000000000e+00 +4.4721471353e+01 1.0000100000e+04 1.0000000000e+04 0.0000e+00 1.0000e+00
  1000022 -1    0    0    0    0 -0.0000000000e+00 -0.0000000000e+00 -4.4721471353e+01 1.0000100000e+04 1.0000000000e+04 0.0000e+00 1.0000e+00
      -24  1    1    2    0    0 -7.5227997289e+03 -4.8315471412e+03 +4.4323212699e+03 9.9793891621e+03 7.9829010000e+01 0.0000e+00 1.0000e+00
       24  1    1    2    0    0 +7.4401286242e+03 +4.7835405413e+03 -4.4373125026e+03 9.8961552621e+03 7.9829010000e+01 0.0000e+00 1.0000e+00
       22  1    1    2    0    0 +9.5114973207e+01 +5.4744387064e+01 +2.9147863086e-01 1.0974466275e+02 0.0000000000e+00 0.0000e+00 1.0000e+00
       22  1    1    2    0    0 -1.2443868532e+01 -6.7377871406e+00 +4.6997540666e+00 1.4910913046e+01 0.0000000000e+00 0.0000e+00 -1.0000e+00
</event>
<event>
 6      1 +1.4834189e-01 1.00702600e+04 7.81653100e-03 6.93450000e-02
  1000022 -1    0    0    0    0 +0.0000000000e+00 +0.0000000000e+00 +4.4721471353e+01 1.0000100000e+04 1.0000000000e+04 0.0000e+00 1.0000e+00
  1000022 -1    0    0    0    0 -0.0000000000e+00 -0.0000000000e+00 -4.4721471353e+01 1.0000100000e+04 1.0000000000e+04 0.0000e+00 1.0000e+00
      -24  1    1    2    0    0 +3.0802017855e+03 -3.1477172085e+03 +8.8230955112e+03 9.8614985542e+03 7.9829010000e+01 0.0000e+00 -1.0000e+00
       24  1    1    2    0    0 -9.4450220514e+02 +6.6610944079e+02 -1.9532252249e+03 2.2709574309e+03 7.9829010000e+01 0.0000e+00 -1.0000e+00
       22  1    1    2    0    0 +1.1065748354e+02 -1.7116530164e+02 -4.5160779504e+01 2.0876334725e+02 0.0000000000e+00 0.0000e+00 1.0000e+00
       22  1    1    2    0    0 -2.2463570639e+03 +2.6527730693e+03 -6.8247095068e+03 7.6589806677e+03 0.0000000000e+00 0.0000e+00 -1.0000e+00
</event>
<event>
 6      1 +1.4834189e-01 1.01990500e+04 7.81653100e-03 6.92684500e-02
  1000022 -1    0    0    0    0 +0.0000000000e+00 +0.0000000000e+00 +4.4721471353e+01 1.0000100000e+04 1.0000000000e+04 0.0000e+00 1.0000e+00
  1000022 -1    0    0    0    0 -0.0000000000e+00 -0.0000000000e+00 -4.4721471353e+01 1.0000100000e+04 1.0000000000e+04 0.0000e+00 1.0000e+00
      -24  1    1    2    0    0 +8.8386651442e+03 +3.8780851729e+03 +1.7013457741e+03 9.8011477008e+03 7.9829010000e+01 0.0000e+00 -1.0000e+00
       24  1    1    2    0    0 -3.6221148504e+03 -1.4168236985e+03 +6.4925936064e+02 3.9439847579e+03 7.9829010000e+01 0.0000e+00 -1.0000e+00
       22  1    1    2    0    0 -2.6939161726e+01 -1.0513916445e+01 +3.0059799344e+01 4.1711538093e+01 0.0000000000e+00 0.0000e+00 -1.0000e+00
       22  1    1    2    0    0 -5.1896111320e+03 -2.4507475580e+03 -2.3806649341e+03 6.2133560033e+03 0.0000000000e+00 0.0000e+00 -1.0000e+00
</event>
<event>
 6      1 +1.4834189e-01 7.39489900e+03 7.81653100e-03 7.12594300e-02
  1000022 -1    0    0    0    0 +0.0000000000e+00 +0.0000000000e+00 +4.4721471353e+01 1.0000100000e+04 1.0000000000e+04 0.0000e+00 1.0000e+00
  1000022 -1    0    0    0    0 -0.0000000000e+00 -0.0000000000e+00 -4.4721471353e+01 1.0000100000e+04 1.0000000000e+04 0.0000e+00 1.0000e+00
      -24  1    1    2    0    0 -6.7367166142e+02 -3.6111887110e+02 +4.4749667611e+03 4.5404780068e+03 7.9829010000e+01 0.0000e+00 -1.0000e+00
       24  1    1    2    0    0 +1.5213853662e+03 -8.9314807842e+02 -3.8813367483e+02 1.8081336629e+03 7.9829010000e+01 0.0000e+00 -1.0000e+00
       22  1    1    2    0    0 +4.7197335393e+03 -3.3602668318e+03 -1.7548197277e+03 6.0536493242e+03 0.0000000000e+00 0.0000e+00 -1.0000e+00
       22  1    1    2    0    0 -5.5674472441e+03 +4.6145337813e+03 -2.3320133586e+03 7.5979390061e+03 0.0000000000e+00 0.0000e+00 -1.0000e+00
</event>
<event>
 6      1 +1.4834189e-01 1.00417700e+04 7.81653100e-03 6.93621000e-02
  1000022 -1    0    0    0    0 +0.0000000000e+00 +0.0000000000e+00 +4.4721471353e+01 1.0000100000e+04 1.0000000000e+04 0.0000e+00 1.0000e+00
  1000022 -1    0    0    0    0 -0.0000000000e+00 -0.0000000000e+00 -4.4721471353e+01 1.0000100000e+04 1.0000000000e+04 0.0000e+00 1.0000e+00
      -24  1    1    2    0    0 -2.1366630121e+03 -8.6153366939e+03 -3.1706297751e+03 9.4259546476e+03 7.9829010000e+01 0.0000e+00 1.0000e+00
       24  1    1    2    0    0 +9.2356696690e+02 +2.1351217210e+03 +1.2531018667e+03 2.6435502010e+03 7.9829010000e+01 0.0000e+00 1.0000e+00
       22  1    1    2    0    0 +1.3231233025e+03 +6.9787743213e+03 +2.0687387691e+03 7.3982177851e+03 0.0000000000e+00 0.0000e+00 1.0000e+00
       22  1    1    2    0    0 -1.1002725730e+02 -4.9855934843e+02 -1.5121086075e+02 5.3247736634e+02 0.0000000000e+00 0.0000e+00 1.0000e+00
</event>
<event>
 6      1 +1.4834189e-01 1.03130000e+04 7.81653100e-03 6.92016600e-02
  1000022 -1    0    0    0    0 +0.0000000000e+00 +0.0000000000e+00 +4.4721471353e+01 1.0000100000e+04 1.0000000000e+04 0.0000e+00 -1.0000e+00
  1000022 -1    0    0    0    0 -0.0000000000e+00 -0.0000000000e+00 -4.4721471353e+01 1.0000100000e+04 1.0000000000e+04 0.0000e+00 -1.0000e+00
      -24  1    1    2    0    0 +5.5021122880e+03 +2.8069056993e+03 +6.9577118109e+03 9.3041972007e+03 7.9829010000e+01 0.0000e+00 -1.0000e+00
       24  1    1    2    0    0 -5.8272934411e+03 -3.0061398955e+03 -6.0398276085e+03 8.9151621483e+03 7.9829010000e+01 0.0000e+00 -1.0000e+00
       22  1    1    2    0    0 +8.2101803159e+02 +4.4622617652e+02 -3.8012909433e+02 1.0088045089e+03 0.0000000000e+00 0.0000e+00 -1.0000e+00
       22  1    1    2    0    0 -4.9583687850e+02 -2.4699198032e+02 -5.3775510810e+02 7.7203614211e+02 0.0000000000e+00 0.0000e+00 1.0000e+00
</event>
<event>
 6      1 +1.4834189e-01 1.00035700e+04 7.81653100e-03 6.93851000e-02
  1000022 -1    0    0    0    0 +0.0000000000e+00 +0.0000000000e+00 +4.4721471353e+01 1.0000100000e+04 1.0000000000e+04 0.0000e+00 -1.0000e+00
  1000022 -1    0    0    0    0 -0.0000000000e+00 -0.0000000000e+00 -4.4721471353e+01 1.0000100000e+04 1.0000000000e+04 0.0000e+00 -1.0000e+00
      -24  1    1    2    0    0 -1.0107066057e+02 -6.8640935270e+02 -1.5664461015e+02 7.1573967518e+02 7.9829010000e+01 0.0000e+00 1.0000e+00
       24  1    1    2    0    0 +1.4929307767e+02 +3.0600229582e+02 +8.7886912081e+01 3.6058647818e+02 7.9829010000e+01 0.0000e+00 -1.0000e+00
       22  1    1    2    0    0 -1.7762510546e+03 +7.6182817339e+03 +5.6267201901e+03 9.6360398755e+03 0.0000000000e+00 0.0000e+00 1.0000e+00
       22  1    1    2    0    0 +1.7280286375e+03 -7.2378746770e+03 -5.5579624920e+03 9.2878339711e+03 0.0000000000e+00 0.0000e+00 1.0000e+00
</event>
<event>
 6      1 +1.4834189e-01 1.00712700e+04 7.81653100e-03 6.93444000e-02
  1000022 -1    0    0    0    0 +0.0000000000e+00 +0.0000000000e+00 +4.4721471353e+01 1.0000100000e+04 1.0000000000e+04 0.0000e+00 1.0000e+00
  1000022 -1    0    0    0    0 -0.0000000000e+00 -0.0000000000e+00 -4.4721471353e+01 1.0000100000e+04 1.0000000000e+04 0.0000e+00 1.0000e+00
      -24  1    1    2    0    0 -3.5861462159e+03 +2.1847965496e+03 +7.6687030614e+03 8.7435210276e+03 7.9829010000e+01 0.0000e+00 1.0000e+00
       24  1    1    2    0    0 +4.0472280755e+03 -2.4609203304e+03 -8.7258830408e+03 9.9289270055e+03 7.9829010000e+01 0.0000e+00 1.0000e+00
       22  1    1    2    0    0 -5.4781917983e+02 +3.3247475391e+02 +6.7050517326e+02 9.2748180745e+02 0.0000000000e+00 0.0000e+00 -1.0000e+00
       22  1    1    2    0    0 +8.6737320245e+01 -5.6350973166e+01 +3.8667480614e+02 4.0027015952e+02 0.0000000000e+00 0.0000e+00 1.0000e+00
</event>
<event>
 6      1 +1.4834189e-01 1.00092700e+04 7.81653100e-03 6.93816600e-02
  1000022 -1    0    0    0    0 +0.0000000000e+00 +0.0000000000e+00 +4.4721471353e+01 1.0000100000e+04 1.0000000000e+04 0.0000e+00 1.0000e+00
  1000022 -1    0    0    0    0 -0.0000000000e+00 -0.0000000000e+00 -4.4721471353e+01 1.0000100000e+04 1.0000000000e+04 0.0000e+00 1.0000e+00
      -24  1    1    2    0    0 -8.5391017710e+02 -1.1631757133e+02 +4.8110803149e+02 9.9021713617e+02 7.9829010000e+01 0.0000e+00 -1.0000e+00
       24  1    1    2    0    0 +7.2291290031e+03 -3.8865119296e+02 -4.5950703747e+03 8.5751035161e+03 7.9829010000e+01 0.0000e+00 1.0000e+00
       22  1    1    2    0    0 -7.5775417891e+03 +6.4240142869e+02 +4.8488700262e+03 9.0190553659e+03 0.0000000000e+00 0.0000e+00 1.0000e+00
       22  1    1    2    0    0 +1.2023229631e+03 -1.3743266439e+02 -7.3490768300e+02 1.4158239818e+03 0.0000000000e+00 0.0000e+00 -1.0000e+00
</event>
<event>
 6      1 +1.4834189e-01 1.00068000e+04 7.81653100e-03 6.93831500e-02
  1000022 -1    0    0    0    0 +0.0000000000e+00 +0.0000000000e+00 +4.4721471353e+01 1.0000100000e+04 1.0000000000e+04 0.0000e+00 1.0000e+00
  1000022 -1    0    0    0    0 -0.0000000000e+00 -0.0000000000e+00 -4.4721471353e+01 1.0000100000e+04 1.0000000000e+04 0.0000e+00 1.0000e+00
      -24  1    1    2    0    0 -4.1678159657e+03 -9.1016463903e+02 -7.8481885674e+03 8.9330580461e+03 7.9829010000e+01 0.0000e+00 1.0000e+00
       24  1    1    2    0    0 +2.8979781190e+03 +3.6332858169e+02 +5.1270081299e+03 5.9010905662e+03 7.9829010000e+01 0.0000e+00 1.0000e+00
       22  1    1    2    0    0 +1.7284461467e+03 +5.9778306499e+02 +3.6758608471e+03 4.1057062294e+03 0.0000000000e+00 0.0000e+00 1.0000e+00
       22  1    1    2    0    0 -4.5860829990e+02 -5.0947007654e+01 -9.5468040955e+02 1.0603451583e+03 0.0000000000e+00 0.0000e+00 1.0000e+00
</event>
<event>
 6      1 +1.4834189e-01 1.00386500e+04 7.81653100e-03 6.93639700e-02
  1000022 -1    0    0    0    0 +0.0000000000e+00 +0.0000000000e+00 +4.4721471353e+01 1.0000100000e+04 1.0000000000e+04 0.0000e+00 -1.0000e+00
  1000022 -1    0    0    0    0 -0.0000000000e+00 -0.0000000000e+00 -4.4721471353e+01 1.0000100000e+04 1.0000000000e+04 0.0000e+00 -1.0000e+00
      -24  1    1    2    0    0 +6.1859389590e+02 -6.6263356663e+02 +1.7659911033e+01 9.1017921036e+02 7.9829010000e+01 0.0000e+00 -1.0000e+00
       24  1    1    2    0    0 -7.7726330496e+03 +6.1159436503e+03 +1.1863657935e+03 9.9615474563e+03 7.9829010000e+01 0.0000e+00 1.0000e+00
       22  1    1    2    0    0 +7.0276467637e+03 -5.1944061893e+03 -1.2756684618e+03 8.8315912903e+03 0.0000000000e+00 0.0000e+00 1.0000e+00
       22  1    1    2    0    0 +1.2639239001e+02 -2.5890389445e+02 +7.1642757242e+01 2.9688204304e+02 0.0000000000e+00 0.0000e+00 -1.0000e+00
</event>
<event>
 6      1 +1.4834189e-01 1.01817600e+04 7.81653100e-03 6.92786600e-02
  1000022 -1    0    0    0    0 +0.0000000000e+00 +0.0000000000e+00 +4.4721471353e+01 1.0000100000e+04 1.0000000000e+04 0.0000e+00 -1.0000e+00
  1000022 -1    0    0    0    0 -0.0000000000e+00 -0.0000000000e+00 -4.4721471353e+01 1.0000100000e+04 1.0000000000e+04 0.0000e+00 -1.0000e+00
      -24  1    1    2    0    0 +1.9508401382e+03 +3.5800967437e+02 -2.1905548723e+01 1.9851450062e+03 7.9829010000e+01 0.0000e+00 -1.0000e+00
       24  1    1    2    0    0 -7.3864492771e+03 +8.0799984154e+02 -3.6669000536e+03 8.2864362268e+03 7.9829010000e+01 0.0000e+00 1.0000e+00
       22  1    1    2    0    0 -1.3117118156e+03 +1.3166981058e+02 -7.8044917126e+02 1.5320005663e+03 0.0000000000e+00 0.0000e+00 1.0000e+00
       22  1    1    2    0    0 +6.7473209545e+03 -1.2976793265e+03 +4.4692547736e+03 8.1966182007e+03 0.0000000000e+00 0.0000e+00 1.0000e+00
</event>
<event>
 6      1 +1.4834189e-01 1.00003200e+04 7.81653100e-03 6.93870600e-02
  1000022 -1    0    0    0    0 +0.0000000000e+00 +0.0000000000e+00 +4.4721471353e+01 1.0000100000e+04 1.0000000000e+04 0.0000e+00 -1.0000e+00
  1000022 -1    0    0    0    0 -0.0000000000e+00 -0.0000000000e+00 -4.4721471353e+01 1.0000100000e+04 1.0000000000e+04 0.0000e+00 -1.0000e+00
      -24  1    1    2    0    0 +3.8348304158e+03 -7.8845957249e+03 -4.3799023195e+03 9.8011576389e+03 7.9829010000e+01 0.0000e+00 1.0000e+00
       24  1    1    2    0    0 -2.0134244688e+03 +4.0744755013e+03 +2.2984204140e+03 5.0935584587e+03 7.9829010000e+01 0.0000e+00 1.0000e+00
       22  1    1    2    0    0 +7.1809810389e+01 -1.5968539324e+02 -9.3991971583e+01 1.9872232991e+02 0.0000000000e+00 0.0000e+00 -1.0000e+00
       22  1    1    2    0    0 -1.8932157574e+03 +3.9698056169e+03 +2.1754738771e+03 4.9067615725e+03 0.0000000000e+00 0.0000e+00 1.0000e+00
</event>
<event>
 6      1 +1.4834189e-01 1.04105900e+04 7.81653100e-03 6.91451400e-02
  1000022 -1    0    0    0    0 +0.0000000000e+00 +0.0000000000e+00 +4.4721471353e+01 1.0000100000e+04 1.0000000000e+04 0.0000e+00 1.0000e+00
  1000022 -1    0    0    0    0 -0.0000000000e+00 -0.0000000000e+00 -4.4721471353e+01 1.0000100000e+04 1.0000000000e+04 0.0000e+00 1.0000e+00
      -24  1    1    2    0    0 +8.5243928082e+03 +2.4731720004e+03 -3.6293883891e+03 9.5896134042e+03 7.9829010000e+01 0.0000e+00 1.0000e+00
       24  1    1    2    0    0 -6.5792149103e+03 -1.5563299489e+03 +3.6789952707e+03 7.6973768661e+03 7.9829010000e+01 0.0000e+00 1.0000e+00
       22  1    1    2    0    0 -5.7536441518e+02 -5.2370268527e+02 -7.8868346854e+02 1.1078494150e+03 0.0000000000e+00 0.0000e+00 1.0000e+00
       22  1    1    2    0    0 -1.3698134827e+03 -3.9313936625e+02 +7.3907658694e+02 1.6053603147e+03 0.0000000000e+00 0.0000e+00 -1.0000e+00
</event>
<event>
 6      1 +1.4834189e-01 1.00911200e+04 7.81653100e-03 6.93325300e-02
  1000022 -1    0    0    0    0 +0.0000000000e+00 +0.0000000000e+00 +4.4721471353e+01 1.0000100000e+04 1.0000000000e+04 0.0000e+00 1.0000e+00
  1000022 -1    0    0    0    0 -0.0000000000e+00 -0.0000000000e+00 -4.4721471353e+01 1.0000100000e+04 1.0000000000e+04 0.0000e+00 1.0000e+00
      -24  1    1    2    0    0 -3.3242632067e+03 +5.8688326241e+03 +7.1661362307e+03 9.8414329945e+03 7.9829010000e+01 0.0000e+00 1.0000e+00
       24  1    1    2    0    0 +2.8425399498e+03 -5.6825018163e+03 -7.1621125453e+03 9.5746064692e+03 7.9829010000e+01 0.0000e+00 1.0000e+00
       22  1    1    2    0    0 +1.7924656880e+01 +3.2823648019e+01 +5.6369906525e+01 6.7647997422e+01 0.0000000000e+00 0.0000e+00 -1.0000e+00
       22  1    1    2    0    0 +4.6379860001e+02 -2.1915445581e+02 -6.0393591944e+01 5.1651253888e+02 0.0000000000e+00 0.0000e+00 1.0000e+00
</event>
<event>
 6      1 +1.4834189e-01 1.00351500e+04 7.81653100e-03 6.93660700e-02
  1000022 -1    0    0    0    0 +0.0000000000e+00 +0.0000000000e+00 +4.4721471353e+01 1.0000100000e+04 1.0000000000e+04 0.0000e+00 -1.0000e+00
  1000022 -1    0    0    0    0 -0.0000000000e+00 -0.0000000000e+00 -4.4721471353e+01 1.0000100000e+04 1.0000000000e+04 0.0000e+00 -1.0000e+00
      -24  1    1    2    0    0 +1.1189055680e+03 +2.0140005160e+03 +2.4606137619e+03 3.3718156095e+03 7.9829010000e+01 0.0000e+00 1.0000e+00
       24  1    1    2    0    0 -3.9403259821e+03 -4.3837203663e+03 -5.6263658640e+03 8.1489593570e+03 7.9829010000e+01 0.0000e+00 1.0000e+00
       22  1    1    2    0    0 +3.6851037304e+03 +3.2915458046e+03 +4.4705421949e+03 6.6633333103e+03 0.0000000000e+00 0.0000e+00 1.0000e+00
       22  1    1    2    0    0 -8.6368331631e+02 -9.2182595435e+02 -1.3047900928e+03 1.8160917232e+03 0.0000000000e+00 0.0000e+00 -1.0000e+00
</event>
<event>
 6      1 +1.4834189e-01 1.00295300e+04 7.81653100e-03 6.93694500e-02
  1000022 -1    0    0    0    0 +0.0000000000e+00 +0.0000000000e+00 +4.4721471353e+01 1.0000100000e+04 1.0000000000e+04 0.0000e+00 1.0000e+00
  1000022 -1    0    0    0    0 -0.0000000000e+00 -0.0000000000e+00 -4.4721471353e+01 1.0000100000e+04 1.0000000000e+04 0.0000e+00 1.0000e+00
      -24  1    1    2    0    0 +4.6095237965e+02 -3.6769664921e+02 -3.3047347122e+02 6.8063448940e+02 7.9829010000e+01 0.0000e+00 1.0000e+00
       24  1    1    2    0    0 -1.2743688202e+02 +3.5001923781e+02 -1.2048228743e+01 3.8114492832e+02 7.9829010000e+01 0.0000e+00 1.0000e+00
       22  1    1    2    0    0 +4.6969970999e+03 -7.9726037747e+03 -1.3332880221e+03 9.3488956383e+03 0.0000000000e+00 0.0000e+00 1.0000e+00
       22  1    1    2    0    0 -5.0305125975e+03 +7.9902811861e+03 +1.6758097221e+03 9.5895249440e+03 0.0000000000e+00 0.0000e+00 1.0000e+00
</event>
<event>
 6      1 +1.4834189e-01 1.00186900e+04 7.81653100e-03 6.93759800e-02
  1000022 -1    0    0    0    0 +0.0000000000e+00 +0.0000000000e+00 +4.4721471353e+01 1.0000100000e+04 1.0000000000e+04 0.0000e+00 1.0000e+00
  1000022 -1    0    0    0    0 -0.0000000000e+00 -0.0000000000e+00 -4.4721471353e+01 1.0000100000e+04 1.0000000000e+04 0.0000e+00 1.0000e+00
      -24  1    1    2    0    0 -8.6536525924e+03 +4.3629197850e+03 +2.3881776822e+03 9.9815097833e+03 7.9829010000e+01 0.0000e+00 -1.0000e+00
       24  1    1    2    0    0 +8.3550891220e+03 -4.1487118963e+03 -2.3043611061e+03 9.6091507124e+03 7.9829010000e+01 0.0000e+00 -1.0000e+00
       22  1    1    2    0    0 +1.8502725410e+01 -5.0246513561e+01 +3.4974140454e+01 6.3955089501e+01 0.0000000000e+00 0.0000e+00 -1.0000e+00
       22  1    1    2    0    0 +2.8006074500e+02 -1.6396137513e+02 -1.1879071658e+02 3.4558441482e+02 0.0000000000e+00 0.0000e+00 -1.0000e+00
</event>
<event>
 6      1 +1.4834189e-01 1.00894900e+04 7.81653100e-03 6.93335000e-02
  1000022 -1    0    0    0    0 +0.0000000000e+00 +0.0000000000e+00 +4.4721471353e+01 1.0000100000e+04 1.0000000000e+04 0.0000e+00 1.0000e+00
  1000022 -1    0    0    0    0 -0.0000000000e+00 -0.0000000000e+00 -4.4721471353e+01 1.0000100000e+04 1.0000000000e+04 0.0000e+00 1.0000e+00
      -24  1    1    2    0    0 -6.9989352366e+02 -1.2074541746e+02 +2.0169384043e+02 7.4261933479e+02 7.9829010000e+01 0.0000e+00 1.0000e+00
       24  1    1    2    0    0 +1.8514138860e+03 +6.5074345427e+02 +5.0569952630e+02 2.0281284729e+03 7.9829010000e+01 0.0000e+00 1.0000e+00
       22  1    1    2    0    0 -8.2352325020e+03 -3.8149606516e+03 +1.2964999436e+03 9.1680909266e+03 0.0000000000e+00 0.0000e+00 -1.0000e+00
       22  1    1    2    0    0 +7.0837121396e+03 +3.2849626148e+03 -2.0038933104e+03 8.0613612657e+03 0.0000000000e+00 0.0000e+00 -1.0000e+00
</event>
<event>
 6      1 +1.4834189e-01 1.01052200e+04 7.81653100e-03 6.93241100e-02
  1000022 -1    0    0    0    0 +0.0000000000e+00 +0.0000000000e+00 +4.4721471353e+01 1.0000100000e+04 1.0000000000e+04 0.0000e+00 -1.0000e+00
  1000022 -1    0    0    0    0 -0.0000000000e+00 -0.0000000000e+00 -4.4721471353e+01 1.0000100000e+04 1.0000000000e+04 0.0000e+00 -1.0000e+00
      -24  1    1    2    0    0 -4.9222988643e+02 -5.2312437481e+02 -5.2247980342e+02 8.9179997109e+02 7.9829010000e+01 0.0000e+00 -1.0000e+00
       24  1    1    2    0    0 +1.8073157851e+03 +8.9670837231e+03 +9.4703682809e+02 9.1966424454e+03 7.9829010000e+01 0.0000e+00 -1.0000e+00
       22  1    1    2    0    0 +7.4825673571e+01 +6.3701899243e+02 +2.7619821523e+02 6.9833912409e+02 0.0000000000e+00 0.0000e+00 1.0000e+00
       22  1    1    2    0    0 -1.3899115722e+03 -9.0809783407e+03 -7.0075523991e+02 9.2134184594e+03 0.0000000000e+00 0.0000e+00 -1.0000e+00
</event>
<event>
 6      1 +1.4834189e-01 1.01131800e+04 7.81653100e-03 6.93193700e-02
  1000022 -1    0    0    0    0 +0.0000000000e+00 +0.0000000000e+00 +4.4721471353e+01 1.0000100000e+04 1.0000000000e+04 0.0000e+00 1.0000e+00
  1000022 -1    0    0    0    0 -0.0000000000e+00 -0.0000000000e+00 -4.4721471353e+01 1.0000100000e+04 1.0000000000e+04 0.0000e+00 1.0000e+00
      -24  1    1    2    0    0 -5.7585117291e+03 -7.8092281201e+03 +1.8979797589e+03 9.8870218469e+03 7.9829010000e+01 0.0000e+00 -1.0000e+00
       24  1    1    2    0    0 +2.2595450793e+02 +8.5583328925e+02 +3.2800156106e+02 9.4734563573e+02 7.9829010000e+01 0.0000e+00 -1.0000e+00
       22  1    1    2    0    0 +9.7598163943e+00 +2.8324139121e+01 +7.6083791615e+00 3.0909518056e+01 0.0000000000e+00 0.0000e+00 -1.0000e+00
       22  1    1    2    0    0 +5.5227974048e+03 +6.9250706917e+03 -2.2335896991e+03 9.1349229993e+03 0.0000000000e+00 0.0000e+00 -1.0000e+00
</event>
<event>
 6      1 +1.4834189e-01 1.01287900e+04 7.81653100e-03 6.93100700e-02
  1000022 -1    0    0    0    0 +0.0000000000e+00 +0.0000000000e+00 +4.4721471353e+01 1.0000100000e+04 1.0000000000e+04 0.0000e+00 1.0000e+00
  1000022 -1    0    0    0    0 -0.0000000000e+00 -0.0000000000e+00 -4.4721471353e+01 1.0000100000e+04 1.0000000000e+04 0.0000e+00 1.0000e+00
      -24  1    1    2    0    0 +1.6739847860e+01 -8.0304148917e+01 -9.3413086317e+02 9.4111748427e+02 7.9829010000e+01 0.0000e+00 1.0000e+00
       24  1    1    2    0    0 -4.7244538641e+03 -3.9748531109e+03 +7.6858700719e+03 9.8589498934e+03 7.9829010000e+01 0.0000e+00 1.0000e+00
       22  1    1    2    0    0 -6.1582757483e+00 -8.1926914042e+00 +7.0944263213e+00 1.2464968410e+01 0.0000000000e+00 0.0000e+00 1.0000e+00
       22  1    1    2    0    0 +4.7138722920e+03 +4.0633499512e+03 -6.7588336351e+03 9.1876676539e+03 0.0000000000e+00 0.0000e+00 1.0000e+00
</event>
<event>
 6      1 +1.4834189e-01 1.00365700e+04 7.81653100e-03 6.93652200e-02
  1000022 -1    0    0    0    0 +0.0000000000e+00 +0.0000000000e+00 +4.4721471353e+01 1.0000100000e+04 1.0000000000e+04 0.0000e+00 1.0000e+00
  1000022 -1    0    0    0    0 -0.0000000000e+00 -0.0000000000e+00 -4.4721471353e+01 1.0000100000e+04 1.0000000000e+04 0.0000e+00 1.0000e+00
      -24  1    1    2    0    0 -6.0333389590e+00 -3.0223904390e+01 -1.3318480333e+02 1.5830586929e+02 7.9829010000e+01 0.0000e+00 0.0000e+00
       24  1    1    2    0    0 -8.2685399008e+02 +8.8739307604e+03 +4.4130493434e+03 9.9454367345e+03 7.9829010000e+01 0.0000e+00 1.0000e+00
       22  1    1    2    0    0 -2.4481059001e+00 +1.5752783014e+01 +8.7629438745e+00 1.8191552450e+01 0.0000000000e+00 0.0000e+00 -1.0000e+00
       22  1    1    2    0    0 +8.3533543493e+02 -8.8594596391e+03 -4.2886274839e+03 9.8782658438e+03 0.0000000000e+00 0.0000e+00 1.0000e+00
</event>
<event>
 6      1 +1.4834189e-01 1.01372200e+04 7.81653100e-03 6.93050600e-02
  1000022 -1    0    0    0    0 +0.0000000000e+00 +0.0000000000e+00 +4.4721471353e+01 1.0000100000e+04 1.0000000000e+04 0.0000e+00 1.0000e+00
  1000022 -1    0    0    0    0 -0.0000000000e+00 -0.0000000000e+00 -4.4721471353e+01 1.0000100000e+04 1.0000000000e+04 0.0000e+00 1.0000e+00
      -24  1    1    2    0    0 +2.6930353694e+03 -3.7566695834e+03 +4.0196976636e+03 6.1261201292e+03 7.9829010000e+01 0.0000e+00 -1.0000e+00
       24  1    1    2    0    0 -5.8757101040e+03 +4.8486940392e+03 -5.6880021241e+03 9.5075519429e+03 7.9829010000e+01 0.0000e+00 -1.0000e+00
       22  1    1    2    0    0 +3.5002701716e+03 -1.1984636444e+03 +1.5494367966e+03 4.0111046817e+03 0.0000000000e+00 0.0000e+00 -1.0000e+00
       22  1    1    2    0    0 -3.1759543690e+02 +1.0643918863e+02 +1.1886766386e+02 3.5542324618e+02 0.0000000000e+00 0.0000e+00 1.0000e+00
</event>
<event>
 6      1 +1.4834189e-01 1.00031900e+04 7.81653100e-03 6.93853300e-02
  1000022 -1    0    0    0    0 +0.0000000000e+00 +0.0000000000e+00 +4.4721471353e+01 1.0000100000e+04 1.0000000000e+04 0.0000e+00 1.0000e+00
  1000022 -1    0    0    0    0 -0.0000000000e+00 -0.0000000000e+00 -4.4721471353e+01 1.0000100000e+04 1.0000000000e+04 0.0000e+00 1.0000e+00
      -24  1    1    2    0    0 +4.8136199114e+03 +2.4832650622e+03 -3.0884715053e+03 6.2355890605e+03 7.9829010000e+01 0.0000e+00 1.0000e+00
       24  1    1    2    0    0 -7.5872106279e+03 -3.8063922508e+03 +5.1325246147e+03 9.9198572908e+03 7.9829010000e+01 0.0000e+00 1.0000e+00
       22  1    1    2    0    0 +2.8319846839e+03 +1.3559011850e+03 -2.0823655268e+03 3.7676055341e+03 0.0000000000e+00 0.0000e+00 -1.0000e+00
       22  1    1    2    0    0 -5.8393967444e+01 -3.2773996417e+01 +3.8312417344e+01 7.7148114674e+01 0.0000000000e+00 0.0000e+00 1.0000e+00
</event>
<event>
 6      1 +1.4834189e-01 1.00086100e+04 7.81653100e-03 6.93820600e-02
  1000022 -1    0    0    0    0 +0.0000000000e+00 +0.0000000000e+00 +4.4721471353e+01 1.0000100000e+04 1.0000000000e+04 0.0000e+00 -1.0000e+00
  1000022 -1    0    0    0    0 -0.0000000000e+00 -0.0000000000e+00 -4.4721471353e+01 1.0000100000e+04 1.0000000000e+04 0.0000e+00 -1.0000e+00
      -24  1    1    2    0    0 +7.8435586042e+03 +5.0519810928e+03 +3.4767060107e+03 9.9567957645e+03 7.9829010000e+01 0.0000e+00 1.0000e+00
       24  1    1    2    0    0 -7.1753460261e+03 -4.5154890332e+03 -3.3086236965e+03 9.1010216591e+03 7.9829010000e+01 0.0000e+00 1.0000e+00
       22  1    1    2    0    0 -6.9662222721e+02 -5.5373628884e+02 -1.7837331532e+02 9.0759211358e+02 0.0000000000e+00 0.0000e+00 1.0000e+00
       22  1    1    2    0    0 +2.8409649028e+01 +1.7244229311e+01 +1.0291001082e+01 3.4790462856e+01 0.0000000000e+00 0.0000e+00 -1.0000e+00
</event>
<event>
 6      1 +1.4834189e-01 1.00001300e+04 7.81653100e-03 6.93871700e-02
  1000022 -1    0    0    0    0 +0.0000000000e+00 +0.0000000000e+00 +4.4721471353e+01 1.0000100000e+04 1.0000000000e+04 0.0000e+00 -1.0000e+00
  1000022 -1    0    0    0    0 -0.0000000000e+00 -0.0000000000e+00 -4.4721471353e+01 1.0000100000e+04 1.0000000000e+04 0.0000e+00 -1.0000e+00
      -24  1    1    2    0    0 +2.3512068391e+02 +6.0505114226e+03 -6.4679705060e+03 8.8603039084e+03 7.9829010000e+01 0.0000e+00 -1.0000e+00
       24  1    1    2    0    0 -2.5405047951e+02 -6.6396184349e+03 +7.0883809425e+03 9.7159966891e+03 7.9829010000e+01 0.0000e+00 -1.0000e+00
       22  1    1    2    0    0 +2.5047090283e+01 +7.9170603377e+02 -8.1953275806e+02 1.1397630202e+03 0.0000000000e+00 0.0000e+00 -1.0000e+00
       22  1    1    2    0    0 -6.1172946814e+00 -2.0259902151e+02 +1.9912232161e+02 2.8413638235e+02 0.0000000000e+00 0.0000e+00 1.0000e+00
</event>
<event>
 6      1 +1.4834189e-01 1.00759800e+04 7.81653100e-03 6.93415800e-02
  1000022 -1    0    0    0    0 +0.0000000000e+00 +0.0000000000e+00 +4.4721471353e+01 1.0000100000e+04 1.0000000000e+04 0.0000e+00 -1.0000e+00
  1000022 -1    0    0    0    0 -0.0000000000e+00 -0.0000000000e+00 -4.4721471353e+01 1.0000100000e+04 1.0000000000e+04 0.0000e+00 -1.0000e+00
      -24  1    1    2    0    0 +2.4345690849e+03 -2.8357002145e+02 -2.0666653232e+03 3.2070261638e+03 7.9829010000e+01 0.0000e+00 1.0000e+00
       24  1    1    2    0    0 -6.5908195958e+03 -1.3026374858e+03 +7.2038503060e+03 9.8507664304e+03 7.9829010000e+01 0.0000e+00 1.0000e+00
       22  1    1    2    0    0 +4.2044577723e+03 +1.6002142031e+03 -5.1908019454e+03 6.8689573802e+03 0.0000000000e+00 0.0000e+00 1.0000e+00
       22  1    1    2    0    0 -4.8207261359e+01 -1.4006695880e+01 +5.3616962636e+01 7.3450025592e+01 0.0000000000e+00 0.0000e+00 1.0000e+00
</event>
<event>
 6      1 +1.4834189e-01 9.43939100e+03 7.81653100e-03 6.97374100e-02
  1000022 -1    0    0    0    0 +0.0000000000e+00 +0.0000000000e+00 +4.4721471353e+01 1.0000100000e+04 1.0000000000e+04 0.0000e+00 -1.0000e+00
  1000022 -1    0    0    0    0 -0.0000000000e+00 -0.0000000000e+00 -4.4721471353e+01 1.0000100000e+04 1.0000000000e+04 0.0000e+00 -1.0000e+00
      -24  1    1    2    0    0 -4.2165475133e+02 +1.0041327256e+03 -2.3901022411e+02 1.1178433781e+03 7.9829010000e+01 0.0000e+00 1.0000e+00
       24  1    1    2    0    0 +7.3751505381e+02 +4.6512009611e+02 -4.4648146742e+02 9.8284461132e+02 7.9829010000e+01 0.0000e+00 1.0000e+00
       22  1    1    2    0    0 +7.3308762018e+03 +3.4631054290e+03 -2.1146320178e+03 8.3789327285e+03 0.0000000000e+00 0.0000e+00 1.0000e+00
       22  1    1    2    0    0 -7.6467365043e+03 -4.9323582507e+03 +2.8001237093e+03 9.5205792821e+03 0.0000000000e+00 0.0000e+00 1.0000e+00
</event>
<event>
 6      1 +1.4834189e-01 1.00307200e+04 7.81653100e-03 6.93687400e-02
  1000022 -1    0    0    0    0 +0.0000000000e+00 +0.0000000000e+00 +4.4721471353e+01 1.0000100000e+04 1.0000000000e+04 0.0000e+00 -1.0000e+00
  1000022 -1    0    0    0    0 -0.0000000000e+00 -0.0000000000e+00 -4.4721471353e+01 1.0000100000e+04 1.0000000000e+04 0.0000e+00 -1.0000e+00
      -24  1    1    2    0    0 -7.7656394474e+03 +6.0123783061e+03 +1.5646315500e+03 9.9452648774e+03 7.9829010000e+01 0.0000e+00 1.0000e+00
       24  1    1    2    0    0 +4.8973658166e+03 -4.4840847883e+03 -7.9998109323e+02 6.6886135149e+03 7.9829010000e+01 0.0000e+00 1.0000e+00
       22  1    1    2    0    0 +6.7138833003e+00 +8.9830295940e+00 +2.1456308848e+01 2.4210415920e+01 0.0000000000e+00 0.0000e+00 1.0000e+00
       22  1    1    2    0    0 +2.8615597475e+03 -1.5372765474e+03 -7.8610676561e+02 3.3421111918e+03 0.0000000000e+00 0.0000e+00 1.0000e+00
</event>
<event>
 6      1 +1.4834189e-01 1.04487300e+04 7.81653100e-03 6.91232200e-02
  1000022 -1    0    0    0    0 +0.0000000000e+00 +0.0000000000e+00 +4.4721471353e+01 1.0000100000e+04 1.0000000000e+04 0.0000e+00 -1.0000e+00
  1000022 -1    0    0    0    0 -0.0000000000e+00 -0.0000000000e+00 -4.4721471353e+01 1.0000100000e+04 1.0000000000e+04 0.0000e+00 -1.0000e+00
      -24  1    1    2    0    0 +2.3100650794e+03 -8.0216592310e+02 -1.4685463674e+03 2.8535717870e+03 7.9829010000e+01 0.0000e+00 1.0000e+00
       24  1    1    2    0    0 -8.3706697111e+03 +4.5847536605e+03 +3.6902809653e+02 9.5514727632e+03 7.9829010000e+01 0.0000e+00 -1.0000e+00
       22  1    1    2    0    0 +7.9528577059e+02 -2.1330653553e+02 -5.9068156148e+02 1.0133527728e+03 0.0000000000e+00 0.0000e+00 1.0000e+00
       22  1    1    2    0    0 +5.2653188610e+03 -3.5692812019e+03 +1.6901998324e+03 6.5818026771e+03 0.0000000000e+00 0.0000e+00 -1.0000e+00
</event>
<event>
 6      1 +1.4834189e-01 1.00521300e+04 7.81653100e-03 6.93558700e-02
  1000022 -1    0    0    0    0 +0.0000000000e+00 +0.0000000000e+00 +4.4721471353e+01 1.0000100000e+04 1.0000000000e+04 0.0000e+00 1.0000e+00
  1000022 -1    0    0    0    0 -0.0000000000e+00 -0.0000000000e+00 -4.4721471353e+01 1.0000100000e+04 1.0000000000e+04 0.0000e+00 1.0000e+00
      -24  1    1    2    0    0 +2.3501549089e+03 +2.2823673073e+03 +1.1484549230e+03 3.4724271054e+03 7.9829010000e+01 0.0000e+00 -1.0000e+00
       24  1    1    2    0    0 -2.4153657599e+02 -1.2133944107e+02 +1.4425752289e+02 3.1661661556e+02 7.9829010000e+01 0.0000e+00 1.0000e+00
       22  1    1    2    0    0 -6.6922736318e+03 -6.4173286402e+03 -2.9684213274e+03 9.7355101775e+03 0.0000000000e+00 0.0000e+00 -1.0000e+00
       22  1    1    2    0    0 +4.5836552988e+03 +4.2563007740e+03 +1.6757088815e+03 6.4756461015e+03 0.0000000000e+00 0.0000e+00 -1.0000e+00
</event>
<event>
 6      1 +1.4834189e-01 1.00019100e+04 7.81653100e-03 6.93861000e-02
  1000022 -1    0    0    0    0 +0.0000000000e+00 +0.0000000000e+00 +4.4721471353e+01 1.0000100000e+04 1.0000000000e+04 0.0000e+00 1.0000e+00
  1000022 -1    0    0    0    0 -0.0000000000e+00 -0.0000000000e+00 -4.4721471353e+01 1.0000100000e+04 1.0000000000e+04 0.0000e+00 1.0000e+00
      -24  1    1    2    0    0 -6.0017367776e+03 +6.2409753206e+03 +4.5248622718e+03 9.7699216245e+03 7.9829010000e+01 0.0000e+00 -1.0000e+00
       24  1    1    2    0    0 +6.0036896011e+03 -6.2766312488e+03 -4.4970781337e+03 9.7811284150e+03 7.9829010000e+01 0.0000e+00 -1.0000e+00
       22  1    1    2    0    0 +1.4614830582e+02 -1.0847725481e+02 -1.2496797316e+02 2.2077961052e+02 0.0000000000e+00 0.0000e+00 -1.0000e+00
       22  1    1    2    0    0 -1.4810112925e+02 +1.4413318307e+02 +9.7183835057e+01 2.2837034997e+02 0.0000000000e+00 0.0000e+00 -1.0000e+00
</event>
<event>
 6      1 +1.4834189e-01 1.00004300e+04 7.81653100e-03 6.93869900e-02
  1000022 -1    0    0    0    0 +0.0000000000e+00 +0.0000000000e+00 +4.4721471353e+01 1.0000100000e+04 1.0000000000e+04 0.0000e+00 1.0000e+00
  1000022 -1    0    0    0    0 -0.0000000000e+00 -0.0000000000e+00 -4.4721471353e+01 1.0000100000e+04 1.0000000000e+04 0.0000e+00 1.0000e+00
      -24  1    1    2    0    0 +6.1662545097e+03 -4.1233397485e+03 -4.7638992253e+03 8.8162199303e+03 7.9829010000e+01 0.0000e+00 -1.0000e+00
       24  1    1    2    0    0 -6.9720179959e+03 +4.6726519263e+03 +5.3983535362e+03 9.9795443048e+03 7.9829010000e+01 0.0000e+00 -1.0000e+00
       22  1    1    2    0    0 -1.6177917406e+01 +1.1620052119e+01 +6.2895247421e+00 2.0888004795e+01 0.0000000000e+00 0.0000e+00 1.0000e+00
       22  1    1    2    0    0 +8.2194140358e+02 -5.6093222997e+02 -6.4074383566e+02 1.1835477601e+03 0.0000000000e+00 0.0000e+00 -1.0000e+00
</event>
<event>
 6      1 +1.4834189e-01 1.08150300e+04 7.81653100e-03 6.89173900e-02
  1000022 -1    0    0    0    0 +0.0000000000e+00 +0.0000000000e+00 +4.4721471353e+01 1.0000100000e+04 1.0000000000e+04 0.0000e+00 1.0000e+00
  1000022 -1    0    0    0    0 -0.0000000000e+00 -0.0000000000e+00 -4.4721471353e+01 1.0000100000e+04 1.0000000000e+04 0.0000e+00 1.0000e+00
      -24  1    1    2    0    0 +5.6935741158e+03 +7.1902150901e+03 -4.9495931450e+02 9.1851693859e+03 7.9829010000e+01 0.0000e+00 -1.0000e+00
       24  1    1    2    0    0 -2.6641487687e+02 -5.7866224438e+02 -2.1607174700e+02 6.7741165503e+02 7.9829010000e+01 0.0000e+00 -1.0000e+00
       22  1    1    2    0    0 -2.4792941148e+03 -3.6821251246e+02 -1.4591711593e+03 2.9002862332e+03 0.0000000000e+00 0.0000e+00 -1.0000e+00
       22  1    1    2    0    0 -2.9478651241e+03 -6.2433403332e+03 +2.1702022208e+03 7.2373327259e+03 0.0000000000e+00 0.0000e+00 -1.0000e+00
</event>
<event>
 6      1 +1.4834189e-01 1.00136600e+04 7.81653100e-03 6.93790100e-02
  1000022 -1    0    0    0    0 +0.0000000000e+00 +0.0000000000e+00 +4.4721471353e+01 1.0000100000e+04 1.0000000000e+04 0.0000e+00 1.0000e+00
  1000022 -1    0    0    0    0 -0.0000000000e+00 -0.0000000000e+00 -4.4721471353e+01 1.0000100000e+04 1.0000000000e+04 0.0000e+00 1.0000e+00
      -24  1    1    2    0    0 +5.8170917661e+02 +9.1138520871e+03 -9.6165753228e+01 9.1332527587e+03 7.9829010000e+01 0.0000e+00 1.0000e+00
       24  1    1    2    0    0 -5.7072948134e+02 -6.0786730991e+03 +3.8944650614e+02 6.1183363784e+03 7.9829010000e+01 0.0000e+00 1.0000e+00
       22  1    1    2    0    0 -1.3078727151e+01 -3.8873228600e+03 -2.4926695434e+02 3.8953284952e+03 0.0000000000e+00 0.0000e+00 1.0000e+00
       22  1    1    2    0    0 +2.0990318821e+00 +8.5214387201e+02 -4.4013798574e+01 8.5328236769e+02 0.0000000000e+00 0.0000e+00 -1.0000e+00
</event>
<event>
 6      1 +1.4834189e-01 1.00041100e+04 7.81653100e-03 6.93847700e-02
  1000022 -1    0    0    0    0 +0.0000000000e+00 +0.0000000000e+00 +4.4721471353e+01 1.0000100000e+04 1.0000000000e+04 0.0000e+00 -1.0000e+00
  1000022 -1    0    0    0    0 -0.0000000000e+00 -0.0000000000e+00 -4.4721471353e+01 1.0000100000e+04 1.0000000000e+04 0.0000e+00 -1.0000e+00
      -24  1    1    2    0    0 -4.7259970161e+03 -2.4151854167e+03 +8.4263187574e+03 9.9587845074e+03 7.9829010000e+01 0.0000e+00 -1.0000e+00
       24  1    1    2    0    0 +4.6427449437e+03 +2.3248392837e+03 -8.1313110759e+03 9.6480335194e+03 7.9829010000e+01 0.0000e+00 -1.0000e+00
       22  1    1    2    0    0 -1.7078735941e+01 -8.0340408133e+00 +3.2174460251e+01 3.7301808610e+01 0.0000000000e+00 0.0000e+00 -1.0000e+00
       22  1    1    2    0    0 +1.0033080832e+02 +9.8380173869e+01 -3.2718214180e+02 3.5608016460e+02 0.0000000000e+00 0.0000e+00 -1.0000e+00
</event>
<event>
 6      1 +1.4834189e-01 1.00564100e+04 7.81653100e-03 6.93533100e-02
  1000022 -1    0    0    0    0 +0.0000000000e+00 +0.0000000000e+00 +4.4721471353e+01 1.0000100000e+04 1.0000000000e+04 0.0000e+00 -1.0000e+00
  1000022 -1    0    0    0    0 -0.0000000000e+00 -0.0000000000e+00 -4.4721471353e+01 1.0000100000e+04 1.0000000000e+04 0.0000e+00 -1.0000e+00
      -24  1    1    2    0    0 +1.3298901543e+03 -9.5763772452e+03 -1.0357819727e+03 9.7239305803e+03 7.9829010000e+01 0.0000e+00 1.0000e+00
       24  1    1    2    0    0 -1.4092697398e+02 +4.5176967311e+02 +7.6683163324e+01 4.8601360878e+02 7.9829010000e+01 0.0000e+00 -1.0000e+00
       22  1    1    2    0    0 -1.0456891383e+03 +9.3251477272e+03 +1.1822525820e+03 9.4577781257e+03 0.0000000000e+00 0.0000e+00 1.0000e+00
       22  1    1    2    0    0 -1.4327404204e+02 -2.0054015512e+02 -2.2315377263e+02 3.3247768523e+02 0.0000000000e+00 0.0000e+00 1.0000e+00
</event>
<event>
 6      1 +1.4834189e-01 1.00001400e+04 7.81653100e-03 6.93871700e-02
  1000022 -1    0    0    0    0 +0.0000000000e+00 +0.0000000000e+00 +4.4721471353e+01 1.0000100000e+04 1.0000000000e+04 0.0000e+00 -1.0000e+00
  1000022 -1    0    0    0    0 -0.0000000000e+00 -0.0000000000e+00 -4.4721471353e+01 1.0000100000e+04 1.0000000000e+04 0.0000e+00 -1.0000e+00
      -24  1    1    2    0    0 -6.1754785896e+03 +3.6686569773e+03 +4.5119529684e+03 8.4829046963e+03 7.9829010000e+01 0.0000e+00 1.0000e+00
       24  1    1    2    0    0 +6.7812920154e+03 -3.9807366486e+03 -4.8831043700e+03 9.2565256237e+03 7.9829010000e+01 0.0000e+00 1.0000e+00
       22  1    1    2    0    0 +5.4118741278e+02 -2.8153329792e+02 -4.2509279207e+02 7.4353795832e+02 0.0000000000e+00 0.0000e+00 1.0000e+00
       22  1    1    2    0    0 -1.1470008386e+03 +5.9361296923e+02 +7.9624419371e+02 1.5172317216e+03 0.0000000000e+00 0.0000e+00 1.0000e+00
</event>
<event>
 6      1 +1.4834189e-01 1.00013200e+04 7.81653100e-03 6.93864600e-02
  1000022 -1    0    0    0    0 +0.0000000000e+00 +0.0000000000e+00 +4.4721471353e+01 1.0000100000e+04 1.0000000000e+04 0.0000e+00 1.0000e+00
  1000022 -1    0    0    0    0 -0.0000000000e+00 -0.0000000000e+00 -4.4721471353e+01 1.0000100000e+04 1.0000000000e+04 0.0000e+00 1.0000e+00
      -24  1    1    2    0    0 -2.8353423470e+03 +1.0636192647e+03 -9.2709719780e+03 9.7533453878e+03 7.9829010000e+01 0.0000e+00 1.0000e+00
       24  1    1    2    0    0 +2.1285543352e+03 -7.4326337109e+02 +7.1421123454e+03 7.4899482923e+03 7.9829010000e+01 0.0000e+00 1.0000e+00
       22  1    1    2    0    0 +7.7973286807e+02 -3.5840271975e+02 +2.3602012393e+03 2.5113712878e+03 0.0000000000e+00 0.0000e+00 1.0000e+00
       22  1    1    2    0    0 -7.2944856255e+01 +3.8046826165e+01 -2.3134160665e+02 2.4553503213e+02 0.0000000000e+00 0.0000e+00 1.0000e+00
</event>
<event>
 6      1 +1.4834189e-01 1.00397700e+04 7.81653100e-03 6.93633000e-02
  1000022 -1    0    0    0    0 +0.0000000000e+00 +0.0000000000e+00 +4.4721471353e+01 1.0000100000e+04 1.0000000000e+04 0.0000e+00 -1.0000e+00
  1000022 -1    0    0    0    0 -0.0000000000e+00 -0.0000000000e+00 -4.4721471353e+01 1.0000100000e+04 1.0000000000e+04 0.0000e+00 -1.0000e+00
      -24  1    1    2    0    0 -8.5714528704e+03 -4.1547535565e+03 -2.8455917559e+03 9.9416068387e+03 7.9829010000e+01 0.0000e+00 1.0000e+00
       24  1    1    2    0    0 +8.5111210156e+03 +4.1776760877e+03 +2.7414707134e+03 9.8698628551e+03 7.9829010000e+01 0.0000e+00 1.0000e+00
       22  1    1    2    0    0 -2.2947428165e+01 -5.0153830822e+01 +8.1205590531e+01 9.8164856945e+01 0.0000000000e+00 0.0000e+00 1.0000e+00
       22  1    1    2    0    0 +8.3279282955e+01 +2.7231299609e+01 +2.2915451942e+01 9.0565449182e+01 0.0000000000e+00 0.0000e+00 -1.0000e+00
</event>
<event>
 6      1 +1.4834189e-01 1.00020600e+04 7.81653100e-03 6.93860100e-02
  1000022 -1    0    0    0    0 +0.0000000000e+00 +0.0000000000e+00 +4.4721471353e+01 1.0000100000e+04 1.0000000000e+04 0.0000e+00 1.0000e+00
  1000022 -1    0    0    0    0 -0.0000000000e+00 -0.0000000000e+00 -4.4721471353e+01 1.0000100000e+04 1.0000000000e+04 0.0000e+00 1.0000e+00
      -24  1    1    2    0    0 -2.7578357314e+03 +1.5108157066e+03 +9.4212128403e+03 9.9324642498e+03 7.9829010000e+01 0.0000e+00 1.0000e+00
       24  1    1    2    0    0 +1.9921291698e+03 -1.0061745071e+03 -6.9888059231e+03 7.3369439598e+03 7.9829010000e+01 0.0000e+00 1.0000e+00
       22  1    1    2    0    0 +7.8193283645e+02 -5.1620299076e+02 -2.4949871734e+03 2.6651164109e+03 0.0000000000e+00 0.0000e+00 1.0000e+00
       22  1    1    2    0    0 -1.6226274839e+01 +1.1561791284e+01 +6.2580256142e+01 6.5675379493e+01 0.0000000000e+00 0.0000e+00 1.0000e+00
</event>
<event>
 6      1 +1.4834189e-01 1.00154100e+04 7.81653100e-03 6.93779600e-02
  1000022 -1    0    0    0    0 +0.0000000000e+00 +0.0000000000e+00 +4.4721471353e+01 1.0000100000e+04 1.0000000000e+04 0.0000e+00 -1.0000e+00
  1000022 -1    0    0    0    0 -0.0000000000e+00 -0.0000000000e+00 -4.4721471353e+01 1.0000100000e+04 1.0000000000e+04 0.0000e+00 -1.0000e+00
      -24  1    1    2    0    0 -7.5417974418e+03 -6.5352515747e+03 -3.1838809330e+02 9.9847867001e+03 7.9829010000e+01 0.0000e+00 1.0000e+00
       24  1    1    2    0    0 +6.8765798342e+03 +6.1073262898e+03 +3.0242583419e+02 9.2024246089e+03 7.9829010000e+01 0.0000e+00 1.0000e+00
       22  1    1    2    0    0 +2.0805291097e+02 +8.7315939659e+01 +7.9793102729e+01 2.3932619231e+02 0.0000000000e+00 0.0000e+00 1.0000e+00
       22  1    1    2    0    0 +4.5716469661e+02 +3.4060934521e+02 -6.3830843626e+01 5.7366249875e+02 0.0000000000e+00 0.0000e+00 -1.0000e+00
</event>
<event>
 6      1 +1.4834189e-01 1.00001500e+04 7.81653100e-03 6.93871600e-02
  1000022 -1    0    0    0    0 +0.0000000000e+00 +0.0000000000e+00 +4.4721471353e+01 1.0000100000e+04 1.0000000000e+04 0.0000e+00 -1.0000e+00
  1000022 -1    0    0    0    0 -0.0000000000e+00 -0.0000000000e+00 -4.4721471353e+01 1.0000100000e+04 1.0000000000e+04 0.0000e+00 -1.0000e+00
      -24  1    1    2    0    0 -6.6664169293e+03 +6.7072511783e+03 +2.5265417035e+02 9.4603667923e+03 7.9829010000e+01 0.0000e+00 1.0000e+00
       24  1    1    2    0    0 +7.0442821641e+03 -7.0711477660e+03 -2.5975034871e+02 9.9848327402e+03 7.9829010000e+01 0.0000e+00 1.0000e+00
       22  1    1    2    0    0 -3.8860657455e+02 +3.7452985275e+02 +8.8609055038e+00 5.3978347144e+02 0.0000000000e+00 0.0000e+00 -1.0000e+00
       22  1    1    2    0    0 +1.0741339791e+01 -1.0633265109e+01 -1.7647271451e+00 1.5216996066e+01 0.0000000000e+00 0.0000e+00 -1.0000e+00
</event>
<event>
 6      1 +1.4834189e-01 1.00026200e+04 7.81653100e-03 6.93856700e-02
  1000022 -1    0    0    0    0 +0.0000000000e+00 +0.0000000000e+00 +4.4721471353e+01 1.0000100000e+04 1.0000000000e+04 0.0000e+00 -1.0000e+00
  1000022 -1    0    0    0    0 -0.0000000000e+00 -0.0000000000e+00 -4.4721471353e+01 1.0000100000e+04 1.0000000000e+04 0.0000e+00 -1.0000e+00
      -24  1    1    2    0    0 -3.5375481799e+03 -8.5516743196e+03 +3.5457441006e+03 9.9108049467e+03 7.9829010000e+01 0.0000e+00 -1.0000e+00
       24  1    1    2    0    0 +3.5630495062e+03 +8.6103037963e+03 -3.5821354786e+03 9.9835224498e+03 7.9829010000e+01 0.0000e+00 -1.0000e+00
       22  1    1    2    0    0 +6.8630702238e+00 +1.6357104364e+01 +7.0815770352e+00 1.9099877732e+01 0.0000000000e+00 0.0000e+00 -1.0000e+00
       22  1    1    2    0    0 -3.2364396469e+01 -7.4986581080e+01 +2.9309801010e+01 8.6772725761e+01 0.0000000000e+00 0.0000e+00 1.0000e+00
</event>
<event>
 6      1 +1.4834189e-01 9.76766000e+03 7.81653100e-03 6.95295000e-02
  1000022 -1    0    0    0    0 +0.0000000000e+00 +0.0000000000e+00 +4.4721471353e+01 1.0000100000e+04 1.0000000000e+04 0.0000e+00 1.0000e+00
  1000022 -1    0    0    0    0 -0.0000000000e+00 -0.0000000000e+00 -4.4721471353e+01 1.0000100000e+04 1.0000000000e+04 0.0000e+00 1.0000e+00
      -24  1    1    2    0    0 -8.8327609740e+03 -3.9493830712e+03 +1.1883185327e+03 9.7485263847e+03 7.9829010000e+01 0.0000e+00 -1.0000e+00
       24  1    1    2    0    0 +1.5829170038e+00 -3.1663808606e+01 +9.8135672146e+00 8.6452757855e+01 7.9829010000e+01 0.0000e+00 1.0000e+00
       22  1    1    2    0    0 +8.9124906710e+03 +3.9644627072e+03 -8.3208374689e+02 9.7898834456e+03 0.0000000000e+00 0.0000e+00 -1.0000e+00
       22  1    1    2    0    0 -8.1312613930e+01 +1.6584172662e+01 -3.6604835303e+02 3.7533741184e+02 0.0000000000e+00 0.0000e+00 -1.0000e+00
</event>
<event>
 6      1 +1.4834189e-01 1.00055200e+04 7.81653100e-03 6.93839200e-02
  1000022 -1    0    0    0    0 +0.0000000000e+00 +0.0000000000e+00 +4.4721471353e+01 1.0000100000e+04 1.0000000000e+04 0.0000e+00 -1.0000e+00
  1000022 -1    0    0    0    0 -0.0000000000e+00 -0.0000000000e+00 -4.4721471353e+01 1.0000100000e+04 1.0000000000e+04 0.0000e+00 -1.0000e+00
      -24  1    1    2    0    0 -8.1379280706e+03 -1.6022666349e+03 -5.2994156693e+03 9.8429320204e+03 7.9829010000e+01 0.0000e+00 1.0000e+00
       24  1    1    2    0    0 +8.1982786717e+03 +1.6097261915e+03 +5.3831724980e+03 9.9392107536e+03 7.9829010000e+01 0.0000e+00 1.0000e+00
       22  1    1    2    0    0 +6.4745055892e+01 +1.4303268178e+01 -6.6144146506e-01 6.6309450667e+01 0.0000000000e+00 0.0000e+00 -1.0000e+00
       22  1    1    2    0    0 -1.2509565697e+02 -2.1762824733e+01 -8.3095387310e+01 1.5174777535e+02 0.0000000000e+00 0.0000e+00 1.0000e+00
</event>
<event>
 6      1 +1.4834189e-01 1.00801700e+04 7.81653100e-03 6.93390700e-02
  1000022 -1    0    0    0    0 +0.0000000000e+00 +0.0000000000e+00 +4.4721471353e+01 1.0000100000e+04 1.0000000000e+04 0.0000e+00 -1.0000e+00
  1000022 -1    0    0    0    0 -0.0000000000e+00 -0.0000000000e+00 -4.4721471353e+01 1.0000100000e+04 1.0000000000e+04 0.0000e+00 -1.0000e+00
      -24  1    1    2    0    0 +8.8111218099e+03 -1.6201822245e+03 +4.2590870762e+03 9.9200329326e+03 7.9829010000e+01 0.0000e+00 1.0000e+00
       24  1    1    2    0    0 -1.5067304143e+03 +2.0054153300e+02 -1.5096982804e+03 2.1438318536e+03 7.9829010000e+01 0.0000e+00 -1.0000e+00
       22  1    1    2    0    0 -1.8330199864e+01 +1.8008446102e+00 -2.1273090971e+01 2.8138650782e+01 0.0000000000e+00 0.0000e+00 1.0000e+00
       22  1    1    2    0    0 -7.2860611958e+03 +1.4178398469e+03 -2.7281157048e+03 7.9081965630e+03 0.0000000000e+00 0.0000e+00 1.0000e+00
</event>
<event>
 6      1 +1.4834189e-01 1.00042000e+04 7.81653100e-03 6.93847200e-02
  1000022 -1    0    0    0    0 +0.0000000000e+00 +0.0000000000e+00 +4.4721471353e+01 1.0000100000e+04 1.0000000000e+04 0.0000e+00 -1.0000e+00
  1000022 -1    0    0    0    0 -0.0000000000e+00 -0.0000000000e+00 -4.4721471353e+01 1.0000100000e+04 1.0000000000e+04 0.0000e+00 -1.0000e+00
      -24  1    1    2    0    0 +6.6601234340e+03 -1.7250944971e+03 +6.6723354374e+03 9.5843428591e+03 7.9829010000e+01 0.0000e+00 1.0000e+00
       24  1    1    2    0    0 -5.0126189271e+03 +1.2563533169e+03 -5.0787298637e+03 7.2460086851e+03 7.9829010000e+01 0.0000e+00 1.0000e+00
       22  1    1    2    0    0 +3.4883252132e+02 -2.3934589453e+01 +2.3242267208e+02 4.1985389245e+02 0.0000000000e+00 0.0000e+00 -1.0000e+00
       22  1    1    2    0    0 -1.9963370282e+03 +4.9267576967e+02 -1.8260282458e+03 2.7499945634e+03 0.0000000000e+00 0.0000e+00 1.0000e+00
</event>
<event>
 6      1 +1.4834189e-01 1.00175100e+04 7.81653100e-03 6.93766900e-02
  1000022 -1    0    0    0    0 +0.0000000000e+00 +0.0000000000e+00 +4.4721471353e+01 1.0000100000e+04 1.0000000000e+04 0.0000e+00 -1.0000e+00
  1000022 -1    0    0    0    0 -0.0000000000e+00 -0.0000000000e+00 -4.4721471353e+01 1.0000100000e+04 1.0000000000e+04 0.0000e+00 -1.0000e+00
      -24  1    1    2    0    0 -9.8478898652e+03 -6.1701876479e+02 +4.7211621160e+02 9.8788113324e+03 7.9829010000e+01 0.0000e+00 1.0000e+00
       24  1    1    2    0    0 +9.8024510678e+03 +5.3684547476e+02 -5.4729164949e+02 9.8327082139e+03 7.9829010000e+01 0.0000e+00 1.0000e+00
       22  1    1    2    0    0 -1.0362980680e+02 -4.2049737480e+00 +5.8154486219e+00 1.0387799625e+02 0.0000000000e+00 0.0000e+00 1.0000e+00
       22  1    1    2    0    0 +1.4906860422e+02 +8.4378263770e+01 +6.9359989266e+01 1.8480245743e+02 0.0000000000e+00 0.0000e+00 -1.0000e+00
</event>
<event>
 6      1 +1.4834189e-01 1.00048000e+04 7.81653100e-03 6.93843600e-02
  1000022 -1    0    0    0    0 +0.0000000000e+00 +0.0000000000e+00 +4.4721471353e+01 1.0000100000e+04 1.0000000000e+04 0.0000e+00 1.0000e+00
  1000022 -1    0    0    0    0 -0.0000000000e+00 -0.0000000000e+00 -4.4721471353e+01 1.0000100000e+04 1.0000000000e+04 0.0000e+00 1.0000e+00
      -24  1    1    2    0    0 -3.3436891847e+03 -2.7505323438e+03 +8.5024329610e+03 9.5416678032e+03 7.9829010000e+01 0.0000e+00 1.0000e+00
       24  1    1    2    0    0 +3.5583349254e+03 +2.8259432303e+03 -8.9024665892e+03 9.9953982725e+03 7.9829010000e+01 0.0000e+00 1.0000e+00
       22  1    1    2    0    0 -2.0244229623e+02 -8.3040542461e+01 +3.7941675290e+02 4.3799051060e+02 0.0000000000e+00 0.0000e+00 1.0000e+00
       22  1    1    2    0    0 -1.2203444532e+01 +7.6296559491e+00 +2.0616875285e+01 2.5143413747e+01 0.0000000000e+00 0.0000e+00 1.0000e+00
</event>
<event>
 6      1 +1.4834189e-01 1.00006400e+04 7.81653100e-03 6.93868700e-02
  1000022 -1    0    0    0    0 +0.0000000000e+00 +0.0000000000e+00 +4.4721471353e+01 1.0000100000e+04 1.0000000000e+04 0.0000e+00 1.0000e+00
  1000022 -1    0    0    0    0 -0.0000000000e+00 -0.0000000000e+00 -4.4721471353e+01 1.0000100000e+04 1.0000000000e+04 0.0000e+00 1.0000e+00
      -24  1    1    2    0    0 +4.6753772192e+03 +5.9794371145e+03 -6.2030471226e+03 9.8029070496e+03 7.9829010000e+01 0.0000e+00 -1.0000e+00
       24  1    1    2    0    0 -4.7204718107e+03 -6.0652101352e+03 +6.2645006764e+03 9.9156426667e+03 7.9829010000e+01 0.0000e+00 -1.0000e+00
       22  1    1    2    0    0 -4.1235039922e+01 -5.0723067640e+01 +5.2623745882e+01 8.3919108306e+01 0.0000000000e+00 0.0000e+00 1.0000e+00
       22  1    1    2    0    0 +8.6329631419e+01 +1.3649608830e+02 -1.1407729969e+02 1.9773117530e+02 0.0000000000e+00 0.0000e+00 1.0000e+00
</event>
<event>
 6      1 +1.4834189e-01 1.00005800e+04 7.81653100e-03 6.93869000e-02
  1000022 -1    0    0    0    0 +0.0000000000e+00 +0.0000000000e+00 +4.4721471353e+01 1.0000100000e+04 1.0000000000e+04 0.0000e+00 -1.0000e+00
  1000022 -1    0    0    0    0 -0.0000000000e+00 -0.0000000000e+00 -4.4721471353e+01 1.0000100000e+04 1.0000000000e+04 0.0000e+00 -1.0000e+00
      -24  1    1    2    0    0 -9.7522216561e+03 +1.5235646728e+03 +7.6066610596e+02 9.9001041479e+03 7.9829010000e+01 0.0000e+00 -1.0000e+00
       24  1    1    2    0    0 +9.7802036296e+03 -1.5349411461e+03 -7.4830666472e+02 9.9284824064e+03 7.9829010000e+01 0.0000e+00 -1.0000e+00
       22  1    1    2    0    0 +7.0216213002e+01 -9.1614703962e+00 -6.7869372060e+00 7.1135867358e+01 0.0000000000e+00 0.0000e+00 1.0000e+00
       22  1    1    2    0    0 -9.8198186483e+01 +2.0537943653e+01 -5.5725040396e+00 1.0047757839e+02 0.0000000000e+00 0.0000e+00 -1.0000e+00
</event>
<event>
 6      1 +1.4834189e-01 1.00262800e+04 7.81653100e-03 6.93714100e-02
  1000022 -1    0    0    0    0 +0.0000000000e+00 +0.0000000000e+00 +4.4721471353e+01 1.0000100000e+04 1.0000000000e+04 0.0000e+00 -1.0000e+00
  1000022 -1    0    0    0    0 -0.0000000000e+00 -0.0000000000e+00 -4.4721471353e+01 1.0000100000e+04 1.0000000000e+04 0.0000e+00 -1.0000e+00
      -24  1    1    2    0    0 +2.1904611357e+01 +1.5560949580e+02 +6.9366170645e+02 7.1570480019e+02 7.9829010000e+01 0.0000e+00 1.0000e+00
       24  1    1    2    0    0 -3.1628888001e+03 +1.2756300575e+03 -9.3181607534e+03 9.9229829236e+03 7.9829010000e+01 0.0000e+00 -1.0000e+00
       22  1    1    2    0    0 +1.8775605308e+01 +4.1707742086e+01 -2.2412846112e+01 5.0935201731e+01 0.0000000000e+00 0.0000e+00 1.0000e+00
       22  1    1    2    0    0 +3.1222085835e+03 -1.4729472954e+03 +8.6469118930e+03 9.3105770745e+03 0.0000000000e+00 0.0000e+00 -1.0000e+00
</event>
<event>
 6      1 +1.4834189e-01 1.04686300e+04 7.81653100e-03 6.91118300e-02
  1000022 -1    0    0    0    0 +0.0000000000e+00 +0.0000000000e+00 +4.4721471353e+01 1.0000100000e+04 1.0000000000e+04 0.0000e+00 1.0000e+00
  1000022 -1    0    0    0    0 -0.0000000000e+00 -0.0000000000e+00 -4.4721471353e+01 1.0000100000e+04 1.0000000000e+04 0.0000e+00 1.0000e+00
      -24  1    1    2    0    0 +1.8506895101e+02 +6.0822482276e+03 -3.9904088163e+03 7.2772061404e+03 7.9829010000e+01 0.0000e+00 -1.0000e+00
       24  1    1    2    0    0 +1.3756542455e+02 -1.3548131157e+03 +4.7464632426e+02 1.4443353587e+03 7.9829010000e+01 0.0000e+00 0.0000e+00
       22  1    1    2    0    0 +1.2323493942e+03 -7.4464846001e+03 +2.9042369013e+03 8.0872374707e+03 0.0000000000e+00 0.0000e+00 -1.0000e+00
       22  1    1    2    0    0 -1.5549837697e+03 +2.7190494882e+03 +6.1152559074e+02 3.1914210301e+03 0.0000000000e+00 0.0000e+00 -1.0000e+00
</event>
<event>
 6      1 +1.4834189e-01 1.02276600e+04 7.81653100e-03 6.92516000e-02
  1000022 -1    0    0    0    0 +0.0000000000e+00 +0.0000000000e+00 +4.4721471353e+01 1.0000100000e+04 1.0000000000e+04 0.0000e+00 -1.0000e+00
  1000022 -1    0    0    0    0 -0.0000000000e+00 -0.0000000000e+00 -4.4721471353e+01 1.0000100000e+04 1.0000000000e+04 0.0000e+00 -1.0000e+00
      -24  1    1    2    0    0 +5.5102019051e+03 +6.3632184473e+03 +1.6828324733e+03 8.5843562279e+03 7.9829010000e+01 0.0000e+00 -1.0000e+00
       24  1    1    2    0    0 -5.3057239532e+03 -7.8570028749e+03 -2.3149622594e+03 9.7595401416e+03 7.9829010000e+01 0.0000e+00 -1.0000e+00
       22  1    1    2    0    0 +8.6354266917e+00 -9.2630793657e+00 +2.9486867085e+00 1.3002691521e+01 0.0000000000e+00 0.0000e+00 1.0000e+00
       22  1    1    2    0    0 -2.1311337859e+02 +1.5030475069e+03 +6.2918109932e+02 1.6433009389e+03 0.0000000000e+00 0.0000e+00 1.0000e+00
</event>
<event>
 6      1 +1.4834189e-01 1.00207500e+04 7.81653100e-03 6.93747400e-02
  1000022 -1    0    0    0    0 +0.0000000000e+00 +0.0000000000e+00 +4.4721471353e+01 1.0000100000e+04 1.0000000000e+04 0.0000e+00 -1.0000e+00
  1000022 -1    0    0    0    0 -0.0000000000e+00 -0.0000000000e+00 -4.4721471353e+01 1.0000100000e+04 1.0000000000e+04 0.0000e+00 -1.0000e+00
      -24  1    1    2    0    0 -3.5665473229e+03 +6.6641949033e+03 -6.2829629896e+03 9.8292293755e+03 7.9829010000e+01 0.0000e+00 1.0000e+00
       24  1    1    2    0    0 +7.9277342247e+01 -6.3912238885e+02 +4.6876583537e+02 8.0054756521e+02 7.9829010000e+01 0.0000e+00 -1.0000e+00
       22  1    1    2    0    0 +3.5492700527e+03 -6.1198432444e+03 +5.9128939120e+03 9.2202013892e+03 0.0000000000e+00 0.0000e+00 1.0000e+00
       22  1    1    2    0    0 -6.2000072074e+01 +9.4770729894e+01 -9.8696757769e+01 1.5022167013e+02 0.0000000000e+00 0.0000e+00 -1.0000e+00
</event>
<event>
 6      1 +1.4834189e-01 1.01790200e+04 7.81653100e-03 6.92802800e-02
  1000022 -1    0    0    0    0 +0.0000000000e+00 +0.0000000000e+00 +4.4721471353e+01 1.0000100000e+04 1.0000000000e+04 0.0000e+00 -1.0000e+00
  1000022 -1    0    0    0    0 -0.0000000000e+00 -0.0000000000e+00 -4.4721471353e+01 1.0000100000e+04 1.0000000000e+04 0.0000e+00 -1.0000e+00
      -24  1    1    2    0    0 -1.9305672072e+03 +2.3495362578e+03 +9.3381917517e+03 9.8211816107e+03 7.9829010000e+01 0.0000e+00 -1.0000e+00
       24  1    1    2    0    0 +6.9155870583e+02 -2.1982392864e+03 -7.5008592312e+03 7.8472779536e+03 7.9829010000e+01 0.0000e+00 -1.0000e+00
       22  1    1    2    0    0 +1.6371363125e+02 -2.4923166772e+02 -7.1329428692e+02 7.7311533228e+02 0.0000000000e+00 0.0000e+00 -1.0000e+00
       22  1    1    2    0    0 +1.0752948702e+03 +9.7934696341e+01 -1.1240382335e+03 1.5586251034e+03 0.0000000000e+00 0.0000e+00 1.0000e+00
</event>
<event>
 6      1 +1.4834189e-01 1.00283400e+04 7.81653100e-03 6.93701700e-02
  1000022 -1    0    0    0    0 +0.0000000000e+00 +0.0000000000e+00 +4.4721471353e+01 1.0000100000e+04 1.0000000000e+04 0.0000e+00 1.0000e+00
  1000022 -1    0    0    0    0 -0.0000000000e+00 -0.0000000000e+00 -4.4721471353e+01 1.0000100000e+04 1.0000000000e+04 0.0000e+00 1.0000e+00
      -24  1    1    2    0    0 +6.5965157755e+03 +6.5944394240e+03 +1.1096588855e+03 9.3935279425e+03 7.9829010000e+01 0.0000e+00 1.0000e+00
       24  1    1    2    0    0 -1.2341016460e+03 -1.8613517697e+03 -1.0045138981e+02 2.2369846750e+03 7.9829010000e+01 0.0000e+00 1.0000e+00
       22  1    1    2    0    0 -5.7099416694e+03 -5.1792164498e+03 -1.1302818307e+03 7.7913576428e+03 0.0000000000e+00 0.0000e+00 1.0000e+00
       22  1    1    2    0    0 +3.4752754001e+02 +4.4612879550e+02 +1.2107433500e+02 5.7832973971e+02 0.0000000000e+00 0.0000e+00 1.0000e+00
</event>
<event>
 6      1 +1.4834189e-01 1.00003400e+04 7.81653100e-03 6.93870500e-02
  1000022 -1    0    0    0    0 +0.0000000000e+00 +0.0000000000e+00 +4.4721471353e+01 1.0000100000e+04 1.0000000000e+04 0.0000e+00 1.0000e+00
  1000022 -1    0    0    0    0 -0.0000000000e+00 -0.0000000000e+00 -4.4721471353e+01 1.0000100000e+04 1.0000000000e+04 0.0000e+00 1.0000e+00
      -24  1    1    2    0    0 +8.3018968026e+03 -1.6339133559e+03 +5.3029107588e+03 9.9859100017e+03 7.9829010000e+01 0.0000e+00 -1.0000e+00
       24  1    1    2    0    0 -8.1172150279e+03 +1.5955010387e+03 -5.1840246466e+03 9.7629548591e+03 7.9829010000e+01 0.0000e+00 -1.0000e+00
       22  1    1    2    0    0 +1.1016506221e+01 +9.5704798035e-01 +9.2691960769e+00 1.4429045224e+01 0.0000000000e+00 0.0000e+00 1.0000e+00
       22  1    1    2    0    0 -1.9569828091e+02 +3.7455269234e+01 -1.2815530827e+02 2.3690609402e+02 0.0000000000e+00 0.0000e+00 1.0000e+00
</event>
<event>
 6      1 +1.4834189e-01 1.00095700e+04 7.81653100e-03 6.93814800e-02
  1000022 -1    0    0    0    0 +0.0000000000e+00 +0.0000000000e+00 +4.4721471353e+01 1.0000100000e+04 1.0000000000e+04 0.0000e+00 1.0000e+00
  1000022 -1    0    0    0    0 -0.0000000000e+00 -0.0000000000e+00 -4.4721471353e+01 1.0000100000e+04 1.0000000000e+04 0.0000e+00 1.0000e+00
      -24  1    1    2    0    0 -6.1036197245e+03 -6.5748564234e+03 -4.1837764570e+03 9.8991549560e+03 7.9829010000e+01 0.0000e+00 1.0000e+00
       24  1    1    2    0    0 +6.1228319435e+03 +6.6661266729e+03 +4.2284752168e+03 9.9906301682e+03 7.9829010000e+01 0.0000e+00 1.0000e+00
       22  1    1    2    0    0 -2.1974312035e+01 -2.0419430165e+01 -1.1545222681e+01 3.2142116987e+01 0.0000000000e+00 0.0000e+00 -1.0000e+00
       22  1    1    2    0    0 +2.7620930310e+00 -7.0850819345e+01 -3.3153537053e+01 7.8272758856e+01 0.0000000000e+00 0.0000e+00 1.0000e+00
</event>
<event>
 6      1 +1.4834189e-01 1.00361800e+04 7.81653100e-03 6.93654600e-02
  1000022 -1    0    0    0    0 +0.0000000000e+00 +0.0000000000e+00 +4.4721471353e+01 1.0000100000e+04 1.0000000000e+04 0.0000e+00 -1.0000e+00
  1000022 -1    0    0    0    0 -0.0000000000e+00 -0.0000000000e+00 -4.4721471353e+01 1.0000100000e+04 1.0000000000e+04 0.0000e+00 -1.0000e+00
      -24  1    1    2    0    0 +3.9529360067e+03 +1.0776034021e+03 +2.8843818477e+03 5.0112836159e+03 7.9829010000e+01 0.0000e+00 1.0000e+00
       24  1    1    2    0    0 -4.4904991478e+02 -8.0488502278e+01 -1.0480740236e+02 4.7484891006e+02 7.9829010000e+01 0.0000e+00 -1.0000e+00
       22  1    1    2    0    0 +4.5217714938e+03 -3.6081051190e+01 +2.1913076414e+03 5.0248928808e+03 0.0000000000e+00 0.0000e+00 1.0000e+00
       22  1    1    2    0    0 -8.0256575857e+03 -9.6103384866e+02 -4.9708820867e+03 9.4891745932e+03 0.0000000000e+00 0.0000e+00 1.0000e+00
</event>
<event>
 6      1 +1.4834189e-01 1.04784700e+04 7.81653100e-03 6.91062000e-02
  1000022 -1    0    0    0    0 +0.0000000000e+00 +0.0000000000e+00 +4.4721471353e+01 1.0000100000e+04 1.0000000000e+04 0.0000e+00 1.0000e+00
  1000022 -1    0    0    0    0 -0.0000000000e+00 -0.0000000000e+00 -4.4721471353e+01 1.0000100000e+04 1.0000000000e+04 0.0000e+00 1.0000e+00
      -24  1    1    2    0    0 -5.1623161589e+03 +1.0321656551e+03 -7.9336008252e+03 9.5217261454e+03 7.9829010000e+01 0.0000e+00 1.0000e+00
       24  1    1    2    0    0 +1.9067846983e+03 -1.3683937916e+03 +5.9116412632e+03 6.3609908466e+03 7.9829010000e+01 0.0000e+00 1.0000e+00
       22  1    1    2    0    0 +3.0110375549e+03 +5.1678433264e+02 +1.2738713020e+03 3.3100092594e+03 0.0000000000e+00 0.0000e+00 1.0000e+00
       22  1    1    2    0    0 +2.4449390567e+02 -1.8055619615e+02 +7.4808825998e+02 8.0747374854e+02 0.0000000000e+00 0.0000e+00 -1.0000e+00
</event>
<event>
 6      1 +1.4834189e-01 1.00101400e+04 7.81653100e-03 6.93811400e-02
  1000022 -1    0    0    0    0 +0.0000000000e+00 +0.0000000000e+00 +4.4721471353e+01 1.0000100000e+04 1.0000000000e+04 0.0000e+00 -1.0000e+00
  1000022 -1    0    0    0    0 -0.0000000000e+00 -0.0000000000e+00 -4.4721471353e+01 1.0000100000e+04 1.0000000000e+04 0.0000e+00 -1.0000e+00
      -24  1    1    2    0    0 -9.4426953050e+02 +4.7704716360e+03 +2.3622547350e+03 5.4070014499e+03 7.9829010000e+01 0.0000e+00 -1.0000e+00
       24  1    1    2    0    0 +2.1433225761e+02 -7.9245158921e+02 -1.5156272626e+02 8.3860704071e+02 7.9829010000e+01 0.0000e+00 0.0000e+00
       22  1    1    2    0    0 +1.2634764830e+03 -7.6401328775e+03 -4.9141575345e+03 9.1715291791e+03 0.0000000000e+00 0.0000e+00 -1.0000e+00
       22  1    1    2    0    0 -5.3353921011e+02 +3.6621128308e+03 +2.7034655258e+03 4.5830623303e+03 0.0000000000e+00 0.0000e+00 -1.0000e+00
</event>
<event>
 6      1 +1.4834189e-01 1.01969600e+04 7.81653100e-03 6.92696800e-02
  1000022 -1    0    0    0    0 +0.0000000000e+00 +0.0000000000e+00 +4.4721471353e+01 1.0000100000e+04 1.0000000000e+04 0.0000e+00 1.0000e+00
  1000022 -1    0    0    0    0 -0.0000000000e+00 -0.0000000000e+00 -4.4721471353e+01 1.0000100000e+04 1.0000000000e+04 0.0000e+00 1.0000e+00
      -24  1    1    2    0    0 -3.2440577876e+03 -4.7029043082e+02 -8.7506435862e+03 9.3447964056e+03 7.9829010000e+01 0.0000e+00 1.0000e+00
       24  1    1    2    0    0 +3.0252859699e+03 -6.4220794628e+01 +9.3241941118e+03 9.8032366092e+03 7.9829010000e+01 0.0000e+00 1.0000e+00
       22  1    1    2    0    0 -5.3096814369e+01 +1.0313811793e+02 -6.9732343727e+01 1.3534896685e+02 0.0000000000e+00 0.0000e+00 1.0000e+00
       22  1    1    2    0    0 +2.7186863205e+02 +4.3137310752e+02 -5.0381818187e+02 7.1681801830e+02 0.0000000000e+00 0.0000e+00 -1.0000e+00
</event>
<event>
 6      1 +1.4834189e-01 1.00017500e+04 7.81653100e-03 6.93862000e-02
  1000022 -1    0    0    0    0 +0.0000000000e+00 +0.0000000000e+00 +4.4721471353e+01 1.0000100000e+04 1.0000000000e+04 0.0000e+00 -1.0000e+00
  1000022 -1    0    0    0    0 -0.0000000000e+00 -0.0000000000e+00 -4.4721471353e+01 1.0000100000e+04 1.0000000000e+04 0.0000e+00 -1.0000e+00
      -24  1    1    2    0    0 +5.7300410486e+03 -5.0970301312e+03 -5.3216333190e+03 9.3348401394e+03 7.9829010000e+01 0.0000e+00 -1.0000e+00
       24  1    1    2    0    0 -6.1275118294e+03 +5.4717651841e+03 +5.6987792831e+03 9.9984535523e+03 7.9829010000e+01 0.0000e+00 -1.0000e+00
       22  1    1    2    0    0 +9.1021590744e+00 -2.2799345334e+01 -7.9000907635e+00 2.5788968214e+01 0.0000000000e+00 0.0000e+00 -1.0000e+00
       22  1    1    2    0    0 +3.8836862170e+02 -3.5193570762e+02 -3.6924587341e+02 6.4111734000e+02 0.0000000000e+00 0.0000e+00 -1.0000e+00
</event>
<event>
 6      1 +1.4834189e-01 1.02371800e+04 7.81653100e-03 6.92460000e-02
  1000022 -1    0    0    0    0 +0.0000000000e+00 +0.0000000000e+00 +4.4721471353e+01 1.0000100000e+04 1.0000000000e+04 0.0000e+00 1.0000e+00
  1000022 -1    0    0    0    0 -0.0000000000e+00 -0.0000000000e+00 -4.4721471353e+01 1.0000100000e+04 1.0000000000e+04 0.0000e+00 1.0000e+00
      -24  1    1    2    0    0 -4.7396874788e+02 +5.4644717206e+02 +8.1866414557e+02 1.0953695906e+03 7.9829010000e+01 0.0000e+00 1.0000e+00
       24  1    1    2    0    0 +6.4615600522e+03 -6.2249831472e+03 +7.5520065585e+02 9.0043808334e+03 7.9829010000e+01 0.0000e+00 1.0000e+00
       22  1    1    2    0    0 +4.9476091853e+02 -5.7501672239e+02 -1.0269751068e+01 7.5864225120e+02 0.0000000000e+00 0.0000e+00 1.0000e+00
       22  1    1    2    0    0 -6.4823522229e+03 +6.2535526976e+03 -1.5635950504e+03 9.1418073248e+03 0.0000000000e+00 0.0000e+00 1.0000e+00
</event>
<event>
 6      1 +1.4834189e-01 1.00687200e+04 7.81653100e-03 6.93459300e-02
  1000022 -1    0    0    0    0 +0.0000000000e+00 +0.0000000000e+00 +4.4721471353e+01 1.0000100000e+04 1.0000000000e+04 0.0000e+00 -1.0000e+00
  1000022 -1    0    0    0    0 -0.0000000000e+00 -0.0000000000e+00 -4.4721471353e+01 1.0000100000e+04 1.0000000000e+04 0.0000e+00 -1.0000e+00
      -24  1    1    2    0    0 +1.0442191877e+03 +7.8653225271e+03 -5.7775983926e+03 9.8153302555e+03 7.9829010000e+01 0.0000e+00 1.0000e+00
       24  1    1    2    0    0 -2.9472948296e+02 -1.9465196016e+02 +8.7634201433e+01 3.7256848742e+02 7.9829010000e+01 0.0000e+00 1.0000e+00
       22  1    1    2    0    0 +8.9260140445e+00 +9.4197268783e+01 -6.7371203911e+01 1.1615368393e+02 0.0000000000e+00 0.0000e+00 -1.0000e+00
       22  1    1    2    0    0 -7.5841571878e+02 -7.7648678357e+03 +5.7573353951e+03 9.6961475732e+03 0.0000000000e+00 0.0000e+00 1.0000e+00
</event>
<event>
 6      1 +1.4834189e-01 1.02228600e+04 7.81653100e-03 6.92544200e-02
  1000022 -1    0    0    0    0 +0.0000000000e+00 +0.0000000000e+00 +4.4721471353e+01 1.0000100000e+04 1.0000000000e+04 0.0000e+00 -1.0000e+00
  1000022 -1    0    0    0    0 -0.0000000000e+00 -0.0000000000e+00 -4.4721471353e+01 1.0000100000e+04 1.0000000000e+04 0.0000e+00 -1.0000e+00
      -24  1    1    2    0    0 -3.1432935444e+03 -7.6752634076e+03 +5.0143329254e+03 9.6922582529e+03 7.9829010000e+01 0.0000e+00 1.0000e+00
       24  1    1    2    0    0 +3.4661338374e+03 +6.3974608761e+03 -5.0265677654e+03 8.8438874717e+03 7.9829010000e+01 0.0000e+00 1.0000e+00
       22  1    1    2    0    0 -2.7981776854e+01 -6.8967260646e+01 +4.1220278826e+01 8.5079811139e+01 0.0000000000e+00 0.0000e+00 1.0000e+00
       22  1    1    2    0    0 -2.9485851613e+02 +1.3467697921e+03 -2.8985438813e+01 1.3789744643e+03 0.0000000000e+00 0.0000e+00 1.0000e+00
</event>
<event>
 6      1 +1.4834189e-01 1.00481000e+04 7.81653100e-03 6.93582900e-02
  1000022 -1    0    0    0    0 +0.0000000000e+00 +0.0000000000e+00 +4.4721471353e+01 1.0000100000e+04 1.0000000000e+04 0.0000e+00 1.0000e+00
  1000022 -1    0    0    0    0 -0.0000000000e+00 -0.0000000000e+00 -4.4721471353e+01 1.0000100000e+04 1.0000000000e+04 0.0000e+00 1.0000e+00
      -24  1    1    2    0    0 +7.2665535439e+03 -3.7218133573e+03 +4.5413518564e+03 9.3426411913e+03 7.9829010000e+01 0.0000e+00 1.0000e+00
       24  1    1    2    0    0 -7.2534454556e+03 +3.4125594431e+03 -4.7462062545e+03 9.3161622684e+03 7.9829010000e+01 0.0000e+00 1.0000e+00
       22  1    1    2    0    0 +4.5492114349e+02 -2.4011325547e+02 +3.2684617347e+02 6.0945553025e+02 0.0000000000e+00 0.0000e+00 1.0000e+00
       22  1    1    2    0    0 -4.6802923182e+02 +5.4936716965e+02 -1.2199177536e+02 7.3194101004e+02 0.0000000000e+00 0.0000e+00 -1.0000e+00
</event>
<event>
 6      1 +1.4834189e-01 1.03115500e+04 7.81653100e-03 6.92025000e-02
  1000022 -1    0    0    0    0 +0.0000000000e+00 +0.0000000000e+00 +4.4721471353e+01 1.0000100000e+04 1.0000000000e+04 0.0000e+00 1.0000e+00
  1000022 -1    0    0    0    0 -0.0000000000e+00 -0.0000000000e+00 -4.4721471353e+01 1.0000100000e+04 1.0000000000e+04 0.0000e+00 1.0000e+00
      -24  1    1    2    0    0 +2.5574542607e+03 +4.4897811470e+03 +3.4006829985e+02 5.1788730592e+03 7.9829010000e+01 0.0000e+00 -1.0000e+00
       24  1    1    2    0    0 -2.0747096476e+03 -9.4390376625e+03 +6.8097503402e+02 9.6886506688e+03 7.9829010000e+01 0.0000e+00 -1.0000e+00
       22  1    1    2    0    0 -4.3946267234e+02 +4.9298604296e+03 -9.3868390637e+02 5.0376362286e+03 0.0000000000e+00 0.0000e+00 -1.0000e+00
       22  1    1    2    0    0 -4.3281940824e+01 +1.9396085846e+01 -8.2359427506e+01 9.5040043386e+01 0.0000000000e+00 0.0000e+00 -1.0000e+00
</event>
<event>
 6      1 +1.4834189e-01 1.02631500e+04 7.81653100e-03 6.92307700e-02
  1000022 -1    0    0    0    0 +0.0000000000e+00 +0.0000000000e+00 +4.4721471353e+01 1.0000100000e+04 1.0000000000e+04 0.0000e+00 -1.0000e+00
  1000022 -1    0    0    0    0 -0.0000000000e+00 -0.0000000000e+00 -4.4721471353e+01 1.0000100000e+04 1.0000000000e+04 0.0000e+00 -1.0000e+00
      -24  1    1    2    0    0 +3.5988591959e+03 +7.9769343360e+03 -4.2685427137e+03 9.7370477293e+03 7.9829010000e+01 0.0000e+00 1.0000e+00
       24  1    1    2    0    0 -2.3195873813e+03 -1.5950334496e+03 +1.3815454053e+03 3.1368228676e+03 7.9829010000e+01 0.0000e+00 1.0000e+00
       22  1    1    2    0    0 -1.7533717228e+01 -1.0976076979e+01 +9.4913612972e+00 2.2759425410e+01 0.0000000000e+00 0.0000e+00 -1.0000e+00
       22  1    1    2    0    0 -1.2617380973e+03 -6.3709248094e+03 +2.8775059471e+03 7.1035699777e+03 0.0000000000e+00 0.0000e+00 1.0000e+00
</event>
<event>
 6      1 +1.4834189e-01 1.00121700e+04 7.81653100e-03 6.93799100e-02
  1000022 -1    0    0    0    0 +0.0000000000e+00 +0.0000000000e+00 +4.4721471353e+01 1.0000100000e+04 1.0000000000e+04 0.0000e+00 1.0000e+00
  1000022 -1    0    0    0    0 -0.0000000000e+00 -0.0000000000e+00 -4.4721471353e+01 1.0000100000e+04 1.0000000000e+04 0.0000e+00 1.0000e+00
      -24  1    1    2    0    0 -5.2390078406e+02 +5.8047272790e+03 +7.6451965246e+03 9.6137783096e+03 7.9829010000e+01 0.0000e+00 -1.0000e+00
       24  1    1    2    0    0 +4.6318201289e+02 -6.1130118259e+03 -7.8345813057e+03 9.9483912301e+03 7.9829010000e+01 0.0000e+00 -1.0000e+00
       22  1    1    2    0    0 +8.8537732678e+00 +3.0092365869e+01 -5.5531267743e+01 6.3778221062e+01 0.0000000000e+00 0.0000e+00 1.0000e+00
       22  1    1    2    0    0 +5.1864997899e+01 +2.7819218101e+02 +2.4491604887e+02 3.7425223924e+02 0.0000000000e+00 0.0000e+00 1.0000e+00
</event>
<event>
 6      1 +1.4834189e-01 8.46955600e+03 7.81653100e-03 7.04051800e-02
  1000022 -1    0    0    0    0 +0.0000000000e+00 +0.0000000000e+00 +4.4721471353e+01 1.0000100000e+04 1.0000000000e+04 0.0000e+00 1.0000e+00
  1000022 -1    0    0    0    0 -0.0000000000e+00 -0.0000000000e+00 -4.4721471353e+01 1.0000100000e+04 1.0000000000e+04 0.0000e+00 1.0000e+00
      -24  1    1    2    0    0 +7.5154011970e+02 -1.6485096626e+03 -2.1706432306e+03 2.8285086821e+03 7.9829010000e+01 0.0000e+00 -1.0000e+00
       24  1    1    2    0    0 +4.5484426521e+03 -6.0309572311e+03 +3.8876708173e+02 7.5642771100e+03 7.9829010000e+01 0.0000e+00 -1.0000e+00
       22  1    1    2    0    0 -5.3420918965e+03 +7.7151380024e+03 +1.7840713068e+03 9.5521835543e+03 0.0000000000e+00 0.0000e+00 -1.0000e+00
       22  1    1    2    0    0 +4.2109124689e+01 -3.5671108752e+01 -2.1951579691e+00 5.5230653629e+01 0.0000000000e+00 0.0000e+00 -1.0000e+00
</event>
<event>
 6      1 +1.4834189e-01 1.00013100e+04 7.81653100e-03 6.93864600e-02
  1000022 -1    0    0    0    0 +0.0000000000e+00 +0.0000000000e+00 +4.4721471353e+01 1.0000100000e+04 1.0000000000e+04 0.0000e+00 1.0000e+00
  1000022 -1    0    0    0    0 -0.0000000000e+00 -0.0000000000e+00 -4.4721471353e+01 1.0000100000e+04 1.0000000000e+04 0.0000e+00 1.0000e+00
      -24  1    1    2    0    0 -4.0829129400e+03 +8.4907696462e+03 +3.9166598541e+02 9.4299057353e+03 7.9829010000e+01 0.0000e+00 -1.0000e+00
       24  1    1    2    0    0 +4.3693226875e+03 -8.9567019511e+03 -3.8582208375e+02 9.9734007209e+03 7.9829010000e+01 0.0000e+00 -1.0000e+00
       22  1    1    2    0    0 -2.9301416699e+02 +4.9053154000e+02 -4.8428008383e+00 5.7140348836e+02 0.0000000000e+00 0.0000e+00 -1.0000e+00
       22  1    1    2    0    0 +6.6044195089e+00 -2.4599235120e+01 -1.0011008126e+00 2.5490055480e+01 0.0000000000e+00 0.0000e+00 -1.0000e+00
</event>
<event>
 6      1 +1.4834189e-01 1.00145300e+04 7.81653100e-03 6.93784900e-02
  1000022 -1    0    0    0    0 +0.0000000000e+00 +0.0000000000e+00 +4.4721471353e+01 1.0000100000e+04 1.0000000000e+04 0.0000e+00 1.0000e+00
  1000022 -1    0    0    0    0 -0.0000000000e+00 -0.0000000000e+00 -4.4721471353e+01 1.0000100000e+04 1.0000000000e+04 0.0000e+00 1.0000e+00
      -24  1    1    2    0    0 -9.1199900487e+03 -1.9959304917e+03 -5.1975438755e+02 9.3506403155e+03 7.9829010000e+01 0.0000e+00 1.0000e+00
       24  1    1    2    0    0 +9.7404255668e+03 +2.0761618910e+03 +5.6546054580e+02 9.9755930511e+03 7.9829010000e+01 0.0000e+00 1.0000e+00
       22  1    1    2    0    0 -6.2316177017e+02 -1.1731785586e+02 -3.4157873911e+01 6.3502821311e+02 0.0000000000e+00 0.0000e+00 1.0000e+00
       22  1    1    2    0    0 +2.7262520249e+00 +3.7086456495e+01 -1.1548284334e+01 3.8938420314e+01 0.0000000000e+00 0.0000e+00 -1.0000e+00
</event>
<event>
 6      1 +1.4834189e-01 1.00038500e+04 7.81653100e-03 6.93849300e-02
  1000022 -1    0    0    0    0 +0.0000000000e+00 +0.0000000000e+00 +4.4721471353e+01 1.0000100000e+04 1.0000000000e+04 0.0000e+00 1.0000e+00
  1000022 -1    0    0    0    0 -0.0000000000e+00 -0.0000000000e+00 -4.4721471353e+01 1.0000100000e+04 1.0000000000e+04 0.0000e+00 1.0000e+00
      -24  1    1    2    0    0 -4.8887201481e+03 -7.2349332108e+03 +4.8409502265e+03 9.9842383294e+03 7.9829010000e+01 0.0000e+00 -1.0000e+00
       24  1    1    2    0    0 +4.7390133289e+03 +7.0184492172e+03 -4.7117898090e+03 9.6914504911e+03 7.9829010000e+01 0.0000e+00 -1.0000e+00
       22  1    1    2    0    0 +1.4279669013e+02 +2.3451459891e+02 -1.3257831348e+02 3.0490162515e+02 0.0000000000e+00 0.0000e+00 -1.0000e+00
       22  1    1    2    0    0 +6.9101290393e+00 -1.8030605274e+01 +3.4178960568e+00 1.9609554389e+01 0.0000000000e+00 0.0000e+00 1.0000e+00
</event>
<event>
 6      1 +1.4834189e-01 1.00696100e+04 7.81653100e-03 6.93454000e-02
  1000022 -1    0    0    0    0 +0.0000000000e+00 +0.0000000000e+00 +4.4721471353e+01 1.0000100000e+04 1.0000000000e+04 0.0000e+00 -1.0000e+00
  1000022 -1    0    0    0    0 -0.0000000000e+00 -0.0000000000e+00 -4.4721471353e+01 1.0000100000e+04 1.0000000000e+04 0.0000e+00 -1.0000e+00
      -24  1    1    2    0    0 -1.6819542756e+03 -7.5898606838e+03 +5.7604596459e+03 9.6759611092e+03 7.9829010000e+01 0.0000e+00 1.0000e+00
       24  1    1    2    0    0 +1.5712239452e+03 +7.5855158350e+03 -6.0977261563e+03 9.8588758040e+03 7.9829010000e+01 0.0000e+00 1.0000e+00
       22  1    1    2    0    0 +7.2195949662e+01 -3.1960482075e+01 +3.8564558206e+02 3.9364481773e+02 0.0000000000e+00 0.0000e+00 -1.0000e+00
       22  1    1    2    0    0 +3.8534380784e+01 +3.6305330853e+01 -4.8379071592e+01 7.1718269073e+01 0.0000000000e+00 0.0000e+00 1.0000e+00
</event>
<event>
 6      1 +1.4834189e-01 1.03787500e+04 7.81653100e-03 6.91635100e-02
  1000022 -1    0    0    0    0 +0.0000000000e+00 +0.0000000000e+00 +4.4721471353e+01 1.0000100000e+04 1.0000000000e+04 0.0000e+00 1.0000e+00
  1000022 -1    0    0    0    0 -0.0000000000e+00 -0.0000000000e+00 -4.4721471353e+01 1.0000100000e+04 1.0000000000e+04 0.0000e+00 1.0000e+00
      -24  1    1    2    0    0 +3.3519578199e+03 -8.3236857261e+03 +3.4367009969e+03 9.6091962050e+03 7.9829010000e+01 0.0000e+00 1.0000e+00
       24  1    1    2    0    0 -3.1168941875e+03 +7.0418261840e+03 -1.2170879785e+03 7.7967955725e+03 7.9829010000e+01 0.0000e+00 1.0000e+00
       22  1    1    2    0    0 -1.3711292247e+00 -1.1906970995e+01 +2.5564461294e+00 1.2255258889e+01 0.0000000000e+00 0.0000e+00 1.0000e+00
       22  1    1    2    0    0 -2.3369250317e+02 +1.2937665131e+03 -2.2221694646e+03 2.5819529635e+03 0.0000000000e+00 0.0000e+00 1.0000e+00
</event>
<event>
 6      1 +1.4834189e-01 1.00002700e+04 7.81653100e-03 6.93870900e-02
  1000022 -1    0    0    0    0 +0.0000000000e+00 +0.0000000000e+00 +4.4721471353e+01 1.0000100000e+04 1.0000000000e+04 0.0000e+00 1.0000e+00
  1000022 -1    0    0    0    0 -0.0000000000e+00 -0.0000000000e+00 -4.4721471353e+01 1.0000100000e+04 1.0000000000e+04 0.0000e+00 1.0000e+00
      -24  1    1    2    0    0 +6.5346188891e+03 +4.0813509037e+02 -6.8211788762e+03 9.4552986314e+03 7.9829010000e+01 0.0000e+00 -1.0000e+00
       24  1    1    2    0    0 -3.4601133900e+03 -2.4111562509e+02 +3.6213969147e+03 5.0151181143e+03 7.9829010000e+01 0.0000e+00 -1.0000e+00
       22  1    1    2    0    0 +3.8036764456e+02 +1.0874292332e+01 -3.8964359514e+02 5.4462824614e+02 0.0000000000e+00 0.0000e+00 1.0000e+00
       22  1    1    2    0    0 -3.4548731436e+03 -1.7789375762e+02 +3.5894255567e+03 4.9851550081e+03 0.0000000000e+00 0.0000e+00 -1.0000e+00
</event>
<event>
 6      1 +1.4834189e-01 1.00112500e+04 7.81653100e-03 6.93804600e-02
  1000022 -1    0    0    0    0 +0.0000000000e+00 +0.0000000000e+00 +4.4721471353e+01 1.0000100000e+04 1.0000000000e+04 0.0000e+00 1.0000e+00
  1000022 -1    0    0    0    0 -0.0000000000e+00 -0.0000000000e+00 -4.4721471353e+01 1.0000100000e+04 1.0000000000e+04 0.0000e+00 1.0000e+00
      -24  1    1    2    0    0 +6.9547066950e+03 -3.9448279361e+03 +5.8202901734e+03 9.8899829642e+03 7.9829010000e+01 0.0000e+00 1.0000e+00
       24  1    1    2    0    0 -2.0345901940e+02 +8.8406298943e+01 -2.7893501994e+02 3.6522412633e+02 7.9829010000e+01 0.0000e+00 -1.0000e+00
       22  1    1    2    0    0 -6.8265633744e+03 +3.8988321999e+03 -5.5895473956e+03 9.6460302775e+03 0.0000000000e+00 0.0000e+00 1.0000e+00
       22  1    1    2    0    0 +7.5315698841e+01 -4.2410562766e+01 +4.8192242079e+01 9.8962631951e+01 0.0000000000e+00 0.0000e+00 -1.0000e+00
</event>
<event>
 6      1 +1.4834189e-01 1.00058800e+04 7.81653100e-03 6.93837100e-02
  1000022 -1    0    0    0    0 +0.0000000000e+00 +0.0000000000e+00 +4.4721471353e+01 1.0000100000e+04 1.0000000000e+04 0.0000e+00 1.0000e+00
  1000022 -1    0    0    0    0 -0.0000000000e+00 -0.0000000000e+00 -4.4721471353e+01 1.0000100000e+04 1.0000000000e+04 0.0000e+00 1.0000e+00
      -24  1    1    2    0    0 -2.6223372823e+02 -7.9986444421e+01 +1.1018497380e+02 3.0606822573e+02 7.9829010000e+01 0.0000e+00 1.0000e+00
       24  1    1    2    0    0 +9.2955186293e+03 +3.1131214624e+03 +6.0764509276e+02 9.8221075669e+03 7.9829010000e+01 0.0000e+00 -1.0000e+00
       22  1    1    2    0    0 -9.1386688095e+03 -3.1690493703e+03 -7.2674569416e+02 9.6998093190e+03 0.0000000000e+00 0.0000e+00 -1.0000e+00
       22  1    1    2    0    0 +1.0538390847e+02 +1.3591435237e+02 +8.9156276033e+00 1.7221488832e+02 0.0000000000e+00 0.0000e+00 1.0000e+00
</event>
<event>
 6      1 +1.4834189e-01 1.06855300e+04 7.81653100e-03 6.89892100e-02
  1000022 -1    0    0    0    0 +0.0000000000e+00 +0.0000000000e+00 +4.4721471353e+01 1.0000100000e+04 1.0000000000e+04 0.0000e+00 1.0000e+00
  1000022 -1    0    0    0    0 -0.0000000000e+00 -0.0000000000e+00 -4.4721471353e+01 1.0000100000e+04 1.0000000000e+04 0.0000e+00 1.0000e+00
      -24  1    1    2    0    0 +2.1744858250e+03 +2.9847920715e+03 +2.6699267760e+03 4.5576588259e+03 7.9829010000e+01 0.0000e+00 -1.0000e+00
       24  1    1    2    0    0 -7.9727905380e+03 -2.3400285699e+03 -3.6786284192e+03 9.0873429774e+03 7.9829010000e+01 0.0000e+00 -1.0000e+00
       22  1    1    2    0    0 -2.0087263264e+02 -5.3728941327e+01 -9.1886746979e+01 2.2733188942e+02 0.0000000000e+00 0.0000e+00 1.0000e+00
       22  1    1    2    0    0 +5.9991773456e+03 -5.9103456025e+02 +1.1005883902e+03 6.1278663073e+03 0.0000000000e+00 0.0000e+00 -1.0000e+00
</event>
<event>
 6      1 +1.4834189e-01 1.00348300e+04 7.81653100e-03 6.93662700e-02
  1000022 -1    0    0    0    0 +0.0000000000e+00 +0.0000000000e+00 +4.4721471353e+01 1.0000100000e+04 1.0000000000e+04 0.0000e+00 -1.0000e+00
  1000022 -1    0    0    0    0 -0.0000000000e+00 -0.0000000000e+00 -4.4721471353e+01 1.0000100000e+04 1.0000000000e+04 0.0000e+00 -1.0000e+00
      -24  1    1    2    0    0 +1.6548500066e+02 +2.2195459007e+03 -9.6569511867e+03 9.9104413718e+03 7.9829010000e+01 0.0000e+00 1.0000e+00
       24  1    1    2    0    0 -5.7478695373e+01 -2.2484596444e+03 +9.6430823005e+03 9.9022362877e+03 7.9829010000e+01 0.0000e+00 1.0000e+00
       22  1    1    2    0    0 -1.0570322482e+02 +4.5790358485e+01 -4.6926021640e+01 1.2438641475e+02 0.0000000000e+00 0.0000e+00 -1.0000e+00
       22  1    1    2    0    0 -2.3030804639e+00 -1.6876614738e+01 +6.0794907850e+01 6.3135925788e+01 0.0000000000e+00 0.0000e+00 1.0000e+00
</event>
<event>
 6      1 +1.4834189e-01 9.61679100e+03 7.81653100e-03 6.96240100e-02
  1000022 -1    0    0    0    0 +0.0000000000e+00 +0.0000000000e+00 +4.4721471353e+01 1.0000100000e+04 1.0000000000e+04 0.0000e+00 1.0000e+00
  1000022 -1    0    0    0    0 -0.0000000000e+00 -0.0000000000e+00 -4.4721471353e+01 1.0000100000e+04 1.0000000000e+04 0.0000e+00 1.0000e+00
      -24  1    1    2    0    0 -3.4899248674e+02 -4.8614755446e+02 +4.5586628275e+02 7.5651962242e+02 7.9829010000e+01 0.0000e+00 1.0000e+00
       24  1    1    2    0    0 +2.5074052571e+03 +8.2518353044e+02 +7.3544764141e+03 7.8142629197e+03 7.9829010000e+01 0.0000e+00 -1.0000e+00
       22  1    1    2    0    0 +6.5777683060e+02 +1.6963487178e+02 +1.5227704805e+03 1.6674160503e+03 0.0000000000e+00 0.0000e+00 -1.0000e+00
       22  1    1    2    0    0 -2.8161896010e+03 -5.0867084776e+02 -9.3331131773e+03 9.7620014075e+03 0.0000000000e+00 0.0000e+00 -1.0000e+00
</event>
<event>
 6      1 +1.4834189e-01 1.00222000e+04 7.81653100e-03 6.93738700e-02
  1000022 -1    0    0    0    0 +0.0000000000e+00 +0.0000000000e+00 +4.4721471353e+01 1.0000100000e+04 1.0000000000e+04 0.0000e+00 -1.0000e+00
  1000022 -1    0    0    0    0 -0.0000000000e+00 -0.0000000000e+00 -4.4721471353e+01 1.0000100000e+04 1.0000000000e+04 0.0000e+00 -1.0000e+00
      -24  1    1    2    0    0 +6.4779157901e+02 +9.1740060580e+01 -4.1025730029e+02 7.7635938316e+02 7.9829010000e+01 0.0000e+00 1.0000e+00
       24  1    1    2    0    0 -8.9459382077e+03 +1.8669074950e+03 +3.7718796904e+03 9.8867893211e+03 7.9829010000e+01 0.0000e+00 1.0000e+00
       22  1    1    2    0    0 -9.1118742588e+01 -1.1102872640e+00 -3.9716744194e+00 9.1212017774e+01 0.0000000000e+00 0.0000e+00 -1.0000e+00
       22  1    1    2    0    0 +8.3892653712e+03 -1.9575372683e+03 -3.3576507157e+03 9.2458392780e+03 0.0000000000e+00 0.0000e+00 1.0000e+00
</event>
<event>
 6      1 +1.4834189e-01 1.00048100e+04 7.81653100e-03 6.93843500e-02
  1000022 -1    0    0    0    0 +0.0000000000e+00 +0.0000000000e+00 +4.4721471353e+01 1.0000100000e+04 1.0000000000e+04 0.0000e+00 1.0000e+00
  1000022 -1    0    0    0    0 -0.0000000000e+00 -0.0000000000e+00 -4.4721471353e+01 1.0000100000e+04 1.0000000000e+04 0.0000e+00 1.0000e+00
      -24  1    1    2    0    0 +5.6201677102e+03 -5.3087138394e+03 -5.9228130759e+03 9.7393436700e+03 7.9829010000e+01 0.0000e+00 -1.0000e+00
       24  1    1    2    0    0 -5.7090673325e+03 +5.4424212842e+03 +6.0638724449e+03 9.9493879682e+03 7.9829010000e+01 0.0000e+00 -1.0000e+00
       22  1    1    2    0    0 -5.0977831170e+01 +7.4054718776e+00 +2.0440335618e+01 5.5420101089e+01 0.0000000000e+00 0.0000e+00 -1.0000e+00
       22  1    1    2    0    0 +1.3987745356e+02 -1.4111291662e+02 -1.6149970467e+02 2.5604826081e+02 0.0000000000e+00 0.0000e+00 -1.0000e+00
</event>
<event>
 6      1 +1.4834189e-01 1.05782200e+04 7.81653100e-03 6.90495000e-02
  1000022 -1    0    0    0    0 +0.0000000000e+00 +0.0000000000e+00 +4.4721471353e+01 1.0000100000e+04 1.0000000000e+04 0.0000e+00 -1.0000e+00
  1000022 -1    0    0    0    0 -0.0000000000e+00 -0.0000000000e+00 -4.4721471353e+01 1.0000100000e+04 1.0000000000e+04 0.0000e+00 -1.0000e+00
      -24  1    1    2    0    0 +2.6721405043e+03 +6.7534310600e+03 +1.4686814852e+03 7.4103012039e+03 7.9829010000e+01 0.0000e+00 1.0000e+00
       24  1    1    2    0    0 -1.7462436716e+03 -9.2322759943e+03 +2.3658030563e+02 9.3992887979e+03 7.9829010000e+01 0.0000e+00 1.0000e+00
       22  1    1    2    0    0 +1.4974460281e+01 -1.0375746689e+01 +1.3529639399e+01 2.2692327389e+01 0.0000000000e+00 0.0000e+00 -1.0000e+00
       22  1    1    2    0    0 -9.4087129300e+02 +2.4892206810e+03 -1.7187914302e+03 3.1679176708e+03 0.0000000000e+00 0.0000e+00 1.0000e+00
</event>
<event>
 6      1 +1.4834189e-01 9.18241100e+03 7.81653100e-03 6.99062000e-02
  1000022 -1    0    0    0    0 +0.0000000000e+00 +0.0000000000e+00 +4.4721471353e+01 1.0000100000e+04 1.0000000000e+04 0.0000e+00 1.0000e+00
  1000022 -1    0    0    0    0 -0.0000000000e+00 -0.0000000000e+00 -4.4721471353e+01 1.0000100000e+04 1.0000000000e+04 0.0000e+00 1.0000e+00
      -24  1    1    2    0    0 +5.6634132619e+03 +6.4373422671e+02 +7.1500735200e+03 9.1443188670e+03 7.9829010000e+01 0.0000e+00 1.0000e+00
       24  1    1    2    0    0 +1.0530836760e+02 +3.0654417118e+02 -2.3487608000e+02 4.0816494824e+02 7.9829010000e+01 0.0000e+00 -1.0000e+00
       22  1    1    2    0    0 -6.7535144176e+03 -7.3391206834e+02 -6.3102190925e+03 9.2718632921e+03 0.0000000000e+00 0.0000e+00 1.0000e+00
       22  1    1    2    0    0 +9.8479278812e+02 -2.1636632955e+02 -6.0497834751e+02 1.1758528926e+03 0.0000000000e+00 0.0000e+00 1.0000e+00
</event>
<event>
 6      1 +1.4834189e-01 1.00095600e+04 7.81653100e-03 6.93814800e-02
  1000022 -1    0    0    0    0 +0.0000000000e+00 +0.0000000000e+00 +4.4721471353e+01 1.0000100000e+04 1.0000000000e+04 0.0000e+00 1.0000e+00
  1000022 -1    0    0    0    0 -0.0000000000e+00 -0.0000000000e+00 -4.4721471353e+01 1.0000100000e+04 1.0000000000e+04 0.0000e+00 1.0000e+00
      -24  1    1    2    0    0 +4.8362685344e+03 +7.6230123001e+03 -2.5417799152e+03 9.3790632620e+03 7.9829010000e+01 0.0000e+00 1.0000e+00
       24  1    1    2    0    0 -1.3709910140e+03 -2.5178826397e+03 +7.8100133301e+02 2.9724880321e+03 7.9829010000e+01 0.0000e+00 1.0000e+00
       22  1    1    2    0    0 +1.8116017510e+02 +5.9581565450e+02 -9.8559266893e+01 6.3049919292e+02 0.0000000000e+00 0.0000e+00 -1.0000e+00
       22  1    1    2    0    0 -3.6464376955e+03 -5.7009453149e+03 +1.8593378490e+03 7.0181495130e+03 0.0000000000e+00 0.0000e+00 1.0000e+00
</event>
<event>
 6      1 +1.4834189e-01 1.00199900e+04 7.81653100e-03 6.93752000e-02
  1000022 -1    0    0    0    0 +0.0000000000e+00 +0.0000000000e+00 +4.4721471353e+01 1.0000100000e+04 1.0000000000e+04 0.0000e+00 -1.0000e+00
  1000022 -1    0    0    0    0 -0.0000000000e+00 -0.0000000000e+00 -4.4721471353e+01 1.0000100000e+04 1.0000000000e+04 0.0000e+00 -1.0000e+00
      -24  1    1    2    0    0 +3.7233545536e+03 +5.8235352444e+02 -1.2869502813e+03 3.9831041232e+03 7.9829010000e+01 0.0000e+00 0.0000e+00
       24  1    1    2    0    0 -9.2842807988e+03 -1.6634594443e+03 +3.2608557157e+03 9.9802064078e+03 7.9829010000e+01 0.0000e+00 1.0000e+00
       22  1    1    2    0    0 +5.3466455270e+03 +9.3906354962e+02 -1.9838063720e+03 5.7796147331e+03 0.0000000000e+00 0.0000e+00 1.0000e+00
       22  1    1    2    0    0 +2.1428071820e+02 +1.4204237026e+02 +9.9009375361e+00 2.5727473585e+02 0.0000000000e+00 0.0000e+00 -1.0000e+00
</event>
<event>
 6      1 +1.4834189e-01 1.01835000e+04 7.81653100e-03 6.92776300e-02
  1000022 -1    0    0    0    0 +0.0000000000e+00 +0.0000000000e+00 +4.4721471353e+01 1.0000100000e+04 1.0000000000e+04 0.0000e+00 -1.0000e+00
  1000022 -1    0    0    0    0 -0.0000000000e+00 -0.0000000000e+00 -4.4721471353e+01 1.0000100000e+04 1.0000000000e+04 0.0000e+00 -1.0000e+00
      -24  1    1    2    0    0 +1.6737492007e+03 +8.5392082269e+03 +4.5433234927e+03 9.8167038541e+03 7.9829010000e+01 0.0000e+00 -1.0000e+00
       24  1    1    2    0    0 -9.9502325471e+02 -7.0787002162e+03 -2.5639327847e+03 7.5946159892e+03 7.9829010000e+01 0.0000e+00 -1.0000e+00
       22  1    1    2    0    0 -1.6124294417e+01 -1.8525321586e+02 -6.9110424741e+01 1.9838094078e+02 0.0000000000e+00 0.0000e+00 1.0000e+00
       22  1    1    2    0    0 -6.6260165157e+02 -1.2752547948e+03 -1.9102802833e+03 2.3904992159e+03 0.0000000000e+00 0.0000e+00 -1.0000e+00
</event>
<event>
 6      1 +1.4834189e-01 8.35133400e+03 7.81653100e-03 7.04927100e-02
  1000022 -1    0    0    0    0 +0.0000000000e+00 +0.0000000000e+00 +4.4721471353e+01 1.0000100000e+04 1.0000000000e+04 0.0000e+00 -1.0000e+00
  1000022 -1    0    0    0    0 -0.0000000000e+00 -0.0000000000e+00 -4.4721471353e+01 1.0000100000e+04 1.0000000000e+04 0.0000e+00 -1.0000e+00
      -24  1    1    2    0    0 -5.5781352378e+03 -5.4985696821e+03 +4.4612593712e+03 9.0143812393e+03 7.9829010000e+01 0.0000e+00 -1.0000e+00
       24  1    1    2    0    0 -2.2731788675e+02 +2.9171038455e+03 +3.6524776176e+02 2.9497367451e+03 7.9829010000e+01 0.0000e+00 -1.0000e+00
       22  1    1    2    0    0 +5.8090460694e+03 +2.5051873773e+03 -4.8305719390e+03 7.9596108755e+03 0.0000000000e+00 0.0000e+00 -1.0000e+00
       22  1    1    2    0    0 -3.5929449209e+00 +7.6278459331e+01 +4.0648060844e+00 7.6471140044e+01 0.0000000000e+00 0.0000e+00 -1.0000e+00
</event>
<event>
 6      1 +1.4834189e-01 1.01420700e+04 7.81653100e-03 6.93021800e-02
  1000022 -1    0    0    0    0 +0.0000000000e+00 +0.0000000000e+00 +4.4721471353e+01 1.0000100000e+04 1.0000000000e+04 0.0000e+00 -1.0000e+00
  1000022 -1    0    0    0    0 -0.0000000000e+00 -0.0000000000e+00 -4.4721471353e+01 1.0000100000e+04 1.0000000000e+04 0.0000e+00 -1.0000e+00
      -24  1    1    2    0    0 -3.7538833127e+03 +2.4270396700e+03 +8.3634599780e+03 9.4834591241e+03 7.9829010000e+01 0.0000e+00 -1.0000e+00
       24  1    1    2    0    0 +2.2738187783e+03 -9.3588715726e+02 -4.0968901323e+03 4.7788092696e+03 7.9829010000e+01 0.0000e+00 -1.0000e+00
       22  1    1    2    0    0 -3.4355042979e+02 -4.3551676304e+02 +3.5506611784e+02 6.5861498369e+02 0.0000000000e+00 0.0000e+00 -1.0000e+00
       22  1    1    2    0    0 +1.8236149641e+03 -1.0556357497e+03 -4.6216359635e+03 5.0793166226e+03 0.0000000000e+00 0.0000e+00 1.0000e+00
</event>
<event>
 6      1 +1.4834189e-01 1.01612200e+04 7.81653100e-03 6.92908200e-02
  1000022 -1    0    0    0    0 +0.0000000000e+00 +0.0000000000e+00 +4.4721471353e+01 1.0000100000e+04 1.0000000000e+04 0.0000e+00 -1.0000e+00
  1000022 -1    0    0    0    0 -0.0000000000e+00 -0.0000000000e+00 -4.4721471353e+01 1.0000100000e+04 1.0000000000e+04 0.0000e+00 -1.0000e+00
      -24  1    1    2    0    0 -2.2255759476e+02 -5.6331942044e+02 +9.0968000704e+02 1.0957878620e+03 7.9829010000e+01 0.0000e+00 1.0000e+00
       24  1    1    2    0    0 +7.9100469366e+00 +2.1501064802e+02 -1.4276749862e+03 1.4460016199e+03 7.9829010000e+01 0.0000e+00 1.0000e+00
       22  1    1    2    0    0 -3.1138003305e+03 -5.6005354314e+03 +5.9482513347e+03 8.7431941279e+03 0.0000000000e+00 0.0000e+00 1.0000e+00
       22  1    1    2    0    0 +3.3284478784e+03 +5.9488442039e+03 -5.4302563556e+03 8.7152163902e+03 0.0000000000e+00 0.0000e+00 1.0000e+00
</event>
<event>
 6      1 +1.4834189e-01 1.00257600e+04 7.81653100e-03 6.93717200e-02
  1000022 -1    0    0    0    0 +0.0000000000e+00 +0.0000000000e+00 +4.4721471353e+01 1.0000100000e+04 1.0000000000e+04 0.0000e+00 -1.0000e+00
  1000022 -1    0    0    0    0 -0.0000000000e+00 -0.0000000000e+00 -4.4721471353e+01 1.0000100000e+04 1.0000000000e+04 0.0000e+00 -1.0000e+00
      -24  1    1    2    0    0 -4.0183087244e+03 +3.0476953217e+03 +8.4621095829e+03 9.8513411799e+03 7.9829010000e+01 0.0000e+00 1.0000e+00
       24  1    1    2    0    0 +4.0738941630e+03 -3.1379564176e+03 -8.5281382060e+03 9.9588602793e+03 7.9829010000e+01 0.0000e+00 1.0000e+00
       22  1    1    2    0    0 -1.2957185621e+01 +5.0196421458e+01 -4.2282580561e+01 6.6898325878e+01 0.0000000000e+00 0.0000e+00 -1.0000e+00
       22  1    1    2    0    0 -4.2628252987e+01 +4.0064674461e+01 +1.0831120361e+02 1.2310021495e+02 0.0000000000e+00 0.0000e+00 -1.0000e+00
</event>
<event>
 6      1 +1.4834189e-01 1.09336800e+04 7.81653100e-03 6.88524700e-02
  1000022 -1    0    0    0    0 +0.0000000000e+00 +0.0000000000e+00 +4.4721471353e+01 1.0000100000e+04 1.0000000000e+04 0.0000e+00 1.0000e+00
  1000022 -1    0    0    0    0 -0.0000000000e+00 -0.0000000000e+00 -4.4721471353e+01 1.0000100000e+04 1.0000000000e+04 0.0000e+00 1.0000e+00
      -24  1    1    2    0    0 -1.7018932032e+03 -3.0560133068e+02 -7.0327542542e+03 7.2426402450e+03 7.9829010000e+01 0.0000e+00 1.0000e+00
       24  1    1    2    0    0 +2.5422834366e+03 -1.6517158703e+03 +8.5442377624e+03 9.0665176335e+03 7.9829010000e+01 0.0000e+00 1.0000e+00
       22  1    1    2    0    0 -1.4059109725e+03 +2.0839745152e+03 -5.5768779921e+02 2.5749856551e+03 0.0000000000e+00 0.0000e+00 1.0000e+00
       22  1    1    2    0    0 +5.6552073903e+02 -1.2665731430e+02 -9.5379570897e+02 1.1160564663e+03 0.0000000000e+00 0.0000e+00 1.0000e+00
</event>
<event>
 6      1 +1.4834189e-01 1.00638800e+04 7.81653100e-03 6.93488300e-02
  1000022 -1    0    0    0    0 +0.0000000000e+00 +0.0000000000e+00 +4.4721471353e+01 1.0000100000e+04 1.0000000000e+04 0.0000e+00 -1.0000e+00
  1000022 -1    0    0    0    0 -0.0000000000e+00 -0.0000000000e+00 -4.4721471353e+01 1.0000100000e+04 1.0000000000e+04 0.0000e+00 -1.0000e+00
      -24  1    1    2    0    0 -5.9061662507e+02 -1.7837225955e+03 -2.6102949978e+03 3.2172203751e+03 7.9829010000e+01 0.0000e+00 0.0000e+00
       24  1    1    2    0    0 +1.6507288044e+03 +6.0177115569e+03 +7.7321660514e+03 9.9363233887e+03 7.9829010000e+01 0.0000e+00 -1.0000e+00
       22  1    1    2    0    0 +6.0468575744e+01 -1.1881694033e+03 -7.6712761178e+02 1.4155874230e+03 0.0000000000e+00 0.0000e+00 -1.0000e+00
       22  1    1    2    0    0 -1.1205807551e+03 -3.0458195581e+03 -4.3547434418e+03 5.4310688132e+03 0.0000000000e+00 0.0000e+00 -1.0000e+00
</event>
<event>
 6      1 +1.4834189e-01 1.00013100e+04 7.81653100e-03 6.93864600e-02
  1000022 -1    0    0    0    0 +0.0000000000e+00 +0.0000000000e+00 +4.4721471353e+01 1.0000100000e+04 1.0000000000e+04 0.0000e+00 -1.0000e+00
  1000022 -1    0    0    0    0 -0.0000000000e+00 -0.0000000000e+00 -4.4721471353e+01 1.0000100000e+04 1.0000000000e+04 0.0000e+00 -1.0000e+00
      -24  1    1    2    0    0 -4.5316211455e+03 -5.5198291502e+03 +6.9976689417e+03 9.9988923058e+03 7.9829010000e+01 0.0000e+00 -1.0000e+00
       24  1    1    2    0    0 +4.4330948939e+03 +5.3871473434e+03 -6.8373361487e+03 9.7687883137e+03 7.9829010000e+01 0.0000e+00 -1.0000e+00
       22  1    1    2    0    0 +8.9673642571e+01 +9.9058174503e+01 -1.2607862343e+02 1.8371092344e+02 0.0000000000e+00 0.0000e+00 1.0000e+00
       22  1    1    2    0    0 +8.8526090632e+00 +3.3623632359e+01 -3.4254169630e+01 4.8808457026e+01 0.0000000000e+00 0.0000e+00 1.0000e+00
</event>
<event>
 6      1 +1.4834189e-01 1.03648500e+04 7.81653100e-03 6.91715600e-02
  1000022 -1    0    0    0    0 +0.0000000000e+00 +0.0000000000e+00 +4.4721471353e+01 1.0000100000e+04 1.0000000000e+04 0.0000e+00 1.0000e+00
  1000022 -1    0    0    0    0 -0.0000000000e+00 -0.0000000000e+00 -4.4721471353e+01 1.0000100000e+04 1.0000000000e+04 0.0000e+00 1.0000e+00
      -24  1    1    2    0    0 +3.9614804440e+03 -1.7515559883e+03 +8.5283170079e+03 9.5655548373e+03 7.9829010000e+01 0.0000e+00 -1.0000e+00
       24  1    1    2    0    0 -2.5736932500e+03 +1.0791153929e+03 -8.2907111163e+03 8.7481798371e+03 7.9829010000e+01 0.0000e+00 -1.0000e+00
       22  1    1    2    0    0 -1.4293265060e+03 +6.9868351964e+02 -2.8718247734e+02 1.6166653014e+03 0.0000000000e+00 0.0000e+00 -1.0000e+00
       22  1    1    2    0    0 +4.1539312122e+01 -2.6242924208e+01 +4.9576585784e+01 6.9800024216e+01 0.0000000000e+00 0.0000e+00 1.0000e+00
</event>
<event>
 6      1 +1.4834189e-01 1.00014600e+04 7.81653100e-03 6.93863700e-02
  1000022 -1    0    0    0    0 +0.0000000000e+00 +0.0000000000e+00 +4.4721471353e+01 1.0000100000e+04 1.0000000000e+04 0.0000e+00 -1.0000e+00
  1000022 -1    0    0    0    0 -0.0000000000e+00 -0.0000000000e+00 -4.4721471353e+01 1.0000100000e+04 1.0000000000e+04 0.0000e+00 -1.0000e+00
      -24  1    1    2    0    0 -9.2252540835e+03 -2.7268551273e+03 -2.6753609746e+03 9.9852381447e+03 7.9829010000e+01 0.0000e+00 -1.0000e+00
       24  1    1    2    0    0 +1.4182130486e+03 +4.6646922725e+02 +3.9044348361e+02 1.5452315606e+03 7.9829010000e+01 0.0000e+00 0.0000e+00
       22  1    1    2    0    0 +7.8191911727e+03 +2.2642775408e+03 +2.2893400115e+03 8.4562273541e+03 0.0000000000e+00 0.0000e+00 -1.0000e+00
       22  1    1    2    0    0 -1.2150137759e+01 -3.8916408364e+00 -4.4225205073e+00 1.3502940554e+01 0.0000000000e+00 0.0000e+00 1.0000e+00
</event>
<event>
 6      1 +1.4834189e-01 1.00747500e+04 7.81653100e-03 6.93423200e-02
  1000022 -1    0    0    0    0 +0.0000000000e+00 +0.0000000000e+00 +4.4721471353e+01 1.0000100000e+04 1.0000000000e+04 0.0000e+00 1.0000e+00
  1000022 -1    0    0    0    0 -0.0000000000e+00 -0.0000000000e+00 -4.4721471353e+01 1.0000100000e+04 1.0000000000e+04 0.0000e+00 1.0000e+00
      -24  1    1    2    0    0 -6.3385234693e+03 -3.7604228049e+03 +6.3548416403e+03 9.7318058133e+03 7.9829010000e+01 0.0000e+00 -1.0000e+00
       24  1    1    2    0    0 +2.4793223829e+02 -1.5655033262e+02 -1.2004388626e+02 3.2674394699e+02 7.9829010000e+01 0.0000e+00 1.0000e+00
       22  1    1    2    0    0 -1.0652460059e+02 -9.3440911027e+01 +1.3198501916e+02 1.9364591311e+02 0.0000000000e+00 0.0000e+00 -1.0000e+00
       22  1    1    2    0    0 +6.1971158316e+03 +4.0104140485e+03 -6.3667827732e+03 9.7480043266e+03 0.0000000000e+00 0.0000e+00 -1.0000e+00
</event>
<event>
 6      1 +1.4834189e-01 1.12976900e+04 7.81653100e-03 6.86583400e-02
  1000022 -1    0    0    0    0 +0.0000000000e+00 +0.0000000000e+00 +4.4721471353e+01 1.0000100000e+04 1.0000000000e+04 0.0000e+00 1.0000e+00
  1000022 -1    0    0    0    0 -0.0000000000e+00 -0.0000000000e+00 -4.4721471353e+01 1.0000100000e+04 1.0000000000e+04 0.0000e+00 1.0000e+00
      -24  1    1    2    0    0 +5.5189101527e+03 -4.0608737384e+03 -5.3645291118e+03 8.7025059641e+03 7.9829010000e+01 0.0000e+00 1.0000e+00
       24  1    1    2    0    0 -5.6826212048e+03 +3.0550696000e+03 +1.2269827198e+03 6.5679139218e+03 7.9829010000e+01 0.0000e+00 1.0000e+00
       22  1    1    2    0    0 +6.3388773251e+02 +8.1516329288e+02 +4.0921172619e+03 4.2203943580e+03 0.0000000000e+00 0.0000e+00 1.0000e+00
       22  1    1    2    0    0 -4.7017668041e+02 +1.9064084544e+02 +4.5429130068e+01 5.0938575619e+02 0.0000000000e+00 0.0000e+00 1.0000e+00
</event>
<event>
 6      1 +1.4834189e-01 9.88803900e+03 7.81653100e-03 6.94553100e-02
  1000022 -1    0    0    0    0 +0.0000000000e+00 +0.0000000000e+00 +4.4721471353e+01 1.0000100000e+04 1.0000000000e+04 0.0000e+00 -1.0000e+00
  1000022 -1    0    0    0    0 -0.0000000000e+00 -0.0000000000e+00 -4.4721471353e+01 1.0000100000e+04 1.0000000000e+04 0.0000e+00 -1.0000e+00
      -24  1    1    2    0    0 -6.0384259298e+03 -4.8889624134e+03 +5.9987793275e+03 9.8161228232e+03 7.9829010000e+01 0.0000e+00 1.0000e+00
       24  1    1    2    0    0 -1.7936153432e+02 -3.1548246173e+01 -1.0444281002e+02 2.2460370263e+02 7.9829010000e+01 0.0000e+00 -1.0000e+00
       22  1    1    2    0    0 +6.2486738227e+03 +4.9403551152e+03 -5.9108356839e+03 9.9192243492e+03 0.0000000000e+00 0.0000e+00 1.0000e+00
       22  1    1    2    0    0 -3.0886358624e+01 -1.9844455692e+01 +1.6499166391e+01 4.0249124989e+01 0.0000000000e+00 0.0000e+00 1.0000e+00
</event>
<event>
 6      1 +1.4834189e-01 1.02323000e+04 7.81653100e-03 6.92488700e-02
  1000022 -1    0    0    0    0 +0.0000000000e+00 +0.0000000000e+00 +4.4721471353e+01 1.0000100000e+04 1.0000000000e+04 0.0000e+00 1.0000e+00
  1000022 -1    0    0    0    0 -0.0000000000e+00 -0.0000000000e+00 -4.4721471353e+01 1.0000100000e+04 1.0000000000e+04 0.0000e+00 1.0000e+00
      -24  1    1    2    0    0 +1.1734523317e+03 +6.3308276510e+02 +9.6761450971e+03 9.7679036018e+03 7.9829010000e+01 0.0000e+00 1.0000e+00
       24  1    1    2    0    0 -1.6147547064e+03 +3.8496545729e+01 -7.9855735043e+03 8.1476789093e+03 7.9829010000e+01 0.0000e+00 1.0000e+00
       22  1    1    2    0    0 +3.0126113691e+02 -1.2032263974e+02 -1.4166655464e+03 1.4533330935e+03 0.0000000000e+00 0.0000e+00 -1.0000e+00
       22  1    1    2    0    0 +1.4004123778e+02 -5.5125667108e+02 -2.7390604645e+02 6.3128439548e+02 0.0000000000e+00 0.0000e+00 1.0000e+00
</event>
<event>
 6      1 +1.4834189e-01 1.10147800e+04 7.81653100e-03 6.88085700e-02
  1000022 -1    0    0    0    0 +0.0000000000e+00 +0.0000000000e+00 +4.4721471353e+01 1.0000100000e+04 1.0000000000e+04 0.0000e+00 -1.0000e+00
  1000022 -1    0    0    0    0 -0.0000000000e+00 -0.0000000000e+00 -4.4721471353e+01 1.0000100000e+04 1.0000000000e+04 0.0000e+00 -1.0000e+00
      -24  1    1    2    0    0 -5.2709540313e+03 +5.6800158229e+03 -4.5481706717e+03 8.9854195939e+03 7.9829010000e+01 0.0000e+00 -1.0000e+00
       24  1    1    2    0    0 +4.7789878413e+03 -1.0240986079e+03 +2.9058529010e+03 5.6866384182e+03 7.9829010000e+01 0.0000e+00 -1.0000e+00
       22  1    1    2    0    0 +1.2796103296e+02 -4.6984173767e+03 +1.4833767528e+03 4.9286820208e+03 0.0000000000e+00 0.0000e+00 -1.0000e+00
       22  1    1    2    0    0 +3.6400515704e+02 +4.2500161741e+01 +1.5894101790e+02 3.9945996705e+02 0.0000000000e+00 0.0000e+00 1.0000e+00
</event>
<event>
 6      1 +1.4834189e-01 1.00122900e+04 7.81653100e-03 6.93798400e-02
  1000022 -1    0    0    0    0 +0.0000000000e+00 +0.0000000000e+00 +4.4721471353e+01 1.0000100000e+04 1.0000000000e+04 0.0000e+00 1.0000e+00
  1000022 -1    0    0    0    0 -0.0000000000e+00 -0.0000000000e+00 -4.4721471353e+01 1.0000100000e+04 1.0000000000e+04 0.0000e+00 1.0000e+00
      -24  1    1    2    0    0 +4.9811363549e+03 +6.1925198618e+03 -4.1594355036e+03 8.9703008871e+03 7.9829010000e+01 0.0000e+00 -1.0000e+00
       24  1    1    2    0    0 -5.4716162232e+03 -6.6020097907e+03 +4.4028353937e+03 9.6393178984e+03 7.9829010000e+01 0.0000e+00 -1.0000e+00
       22  1    1    2    0    0 +5.7594822592e+02 +7.0810589864e+02 -4.4988000444e+02 1.0176061817e+03 0.0000000000e+00 0.0000e+00 1.0000e+00
       22  1    1    2    0    0 -8.5468357592e+01 -2.9861596975e+02 +2.0648011434e+02 3.7297503288e+02 0.0000000000e+00 0.0000e+00 1.0000e+00
</event>
<event>
 6      1 +1.4834189e-01 1.00178500e+04 7.81653100e-03 6.93764800e-02
  1000022 -1    0    0    0    0 +0.0000000000e+00 +0.0000000000e+00 +4.4721471353e+01 1.0000100000e+04 1.0000000000e+04 0.0000e+00 -1.0000e+00
  1000022 -1    0    0    0    0 -0.0000000000e+00 -0.0000000000e+00 -4.4721471353e+01 1.0000100000e+04 1.0000000000e+04 0.0000e+00 -1.0000e+00
      -24  1    1    2    0    0 -1.1881295054e+02 -2.2975216150e+02 -5.7709303539e+02 6.3742577235e+02 7.9829010000e+01 0.0000e+00 0.0000e+00
       24  1    1    2    0    0 -5.8777594708e+01 +1.3471226271e+02 +1.5746370986e+02 2.2971654299e+02 7.9829010000e+01 0.0000e+00 1.0000e+00
       22  1    1    2    0    0 -1.0289331501e+03 -3.4165338945e+03 -8.6369041631e+03 9.3449195183e+03 0.0000000000e+00 0.0000e+00 1.0000e+00
       22  1    1    2    0    0 +1.2065236953e+03 +3.5115737933e+03 +9.0565334887e+03 9.7881381664e+03 0.0000000000e+00 0.0000e+00 1.0000e+00
</event>
<event>
 6      1 +1.4834189e-01 1.12617100e+04 7.81653100e-03 6.86772000e-02
  1000022 -1    0    0    0    0 +0.0000000000e+00 +0.0000000000e+00 +4.4721471353e+01 1.0000100000e+04 1.0000000000e+04 0.0000e+00 -1.0000e+00
  1000022 -1    0    0    0    0 -0.0000000000e+00 -0.0000000000e+00 -4.4721471353e+01 1.0000100000e+04 1.0000000000e+04 0.0000e+00 -1.0000e+00
      -24  1    1    2    0    0 -4.6301878752e+03 +2.9484378666e+03 +1.3651694136e+03 5.6570297694e+03 7.9829010000e+01 0.0000e+00 -1.0000e+00
       24  1    1    2    0    0 +4.6714536090e+03 -4.8891399502e+03 -1.0718534197e+02 6.7634332733e+03 7.9829010000e+01 0.0000e+00 -1.0000e+00
       22  1    1    2    0    0 -2.8315893578e+03 -1.0158006030e+03 +6.6755594353e+02 3.0814574627e+03 0.0000000000e+00 0.0000e+00 -1.0000e+00
       22  1    1    2    0    0 +2.7903236241e+03 +2.9565026865e+03 -1.9255400151e+03 4.4982794947e+03 0.0000000000e+00 0.0000e+00 -1.0000e+00
</event>
<event>
 6      1 +1.4834189e-01 1.01723900e+04 7.81653100e-03 6.92842000e-02
  1000022 -1    0    0    0    0 +0.0000000000e+00 +0.0000000000e+00 +4.4721471353e+01 1.0000100000e+04 1.0000000000e+04 0.0000e+00 1.0000e+00
  1000022 -1    0    0    0    0 -0.0000000000e+00 -0.0000000000e+00 -4.4721471353e+01 1.0000100000e+04 1.0000000000e+04 0.0000e+00 1.0000e+00
      -24  1    1    2    0    0 +7.7974473673e+03 +4.1051774174e+03 +4.3504841754e+03 9.8278050604e+03 7.9829010000e+01 0.0000e+00 1.0000e+00
       24  1    1    2    0    0 -7.4011093724e+03 -4.1947726717e+03 -3.7965169391e+03 9.3162466288e+03 7.9829010000e+01 0.0000e+00 1.0000e+00
       22  1    1    2    0    0 -1.1142109425e+02 +2.4885334074e+02 -4.2551479504e+02 5.0537657864e+02 0.0000000000e+00 0.0000e+00 1.0000e+00
       22  1    1    2    0    0 -2.8491690059e+02 -1.5925808648e+02 -1.2845244133e+02 3.5077173209e+02 0.0000000000e+00 0.0000e+00 -1.0000e+00
</event>
<event>
 6      1 +1.4834189e-01 1.04459900e+04 7.81653100e-03 6.91248000e-02
  1000022 -1    0    0    0    0 +0.0000000000e+00 +0.0000000000e+00 +4.4721471353e+01 1.0000100000e+04 1.0000000000e+04 0.0000e+00 1.0000e+00
  1000022 -1    0    0    0    0 -0.0000000000e+00 -0.0000000000e+00 -4.4721471353e+01 1.0000100000e+04 1.0000000000e+04 0.0000e+00 1.0000e+00
      -24  1    1    2    0    0 +2.2838589529e+03 -2.9786703637e+03 +8.7856759534e+03 9.5542118190e+03 7.9829010000e+01 0.0000e+00 -1.0000e+00
       24  1    1    2    0    0 -1.5140882536e+03 +9.5400061174e+02 -2.7516113798e+03 3.2833394986e+03 7.9829010000e+01 0.0000e+00 1.0000e+00
       22  1    1    2    0    0 -1.4272742428e+03 +5.9378023450e+02 -8.9176458739e+02 1.7846374451e+03 0.0000000000e+00 0.0000e+00 -1.0000e+00
       22  1    1    2    0    0 +6.5750354352e+02 +1.4308895175e+03 -5.1422999862e+03 5.3780112374e+03 0.0000000000e+00 0.0000e+00 -1.0000e+00
</event>
<event>
 6      1 +1.4834189e-01 1.00505000e+04 7.81653100e-03 6.93568500e-02
  1000022 -1    0    0    0    0 +0.0000000000e+00 +0.0000000000e+00 +4.4721471353e+01 1.0000100000e+04 1.0000000000e+04 0.0000e+00 -1.0000e+00
  1000022 -1    0    0    0    0 -0.0000000000e+00 -0.0000000000e+00 -4.4721471353e+01 1.0000100000e+04 1.0000000000e+04 0.0000e+00 -1.0000e+00
      -24  1    1    2    0    0 -8.0687425938e+03 -3.2710532041e+03 +4.7834116968e+03 9.9343744766e+03 7.9829010000e+01 0.0000e+00 -1.0000e+00
       24  1    1    2    0    0 +8.0233011762e+03 +3.3563300398e+03 -4.6059082269e+03 9.8417008879e+03 7.9829010000e+01 0.0000e+00 -1.0000e+00
       22  1    1    2    0    0 +5.9278433451e+01 -8.1486270426e+01 -1.8287969726e+02 2.0880356465e+02 0.0000000000e+00 0.0000e+00 1.0000e+00
       22  1    1    2    0    0 -1.3837015896e+01 -3.7905652423e+00 +5.3762273680e+00 1.5321070931e+01 0.0000000000e+00 0.0000e+00 -1.0000e+00
</event>
<event>
 6      1 +1.4834189e-01 1.00217700e+04 7.81653100e-03 6.93741300e-02
  1000022 -1    0    0    0    0 +0.0000000000e+00 +0.0000000000e+00 +4.4721471353e+01 1.0000100000e+04 1.0000000000e+04 0.0000e+00 1.0000e+00
  1000022 -1    0    0    0    0 -0.0000000000e+00 -0.0000000000e+00 -4.4721471353e+01 1.0000100000e+04 1.0000000000e+04 0.0000e+00 1.0000e+00
      -24  1    1    2    0    0 -5.2366086265e+02 -8.8859612325e+02 -2.6324608762e+03 2.8284353811e+03 7.9829010000e+01 0.0000e+00 1.0000e+00
       24  1    1    2    0    0 +2.0230237216e+03 +3.1973928559e+03 +9.2329162292e+03 9.9784297773e+03 7.9829010000e+01 0.0000e+00 1.0000e+00
       22  1    1    2    0    0 -3.3908195199e+02 -1.1229818882e+03 -3.2363453281e+03 3.4423823109e+03 0.0000000000e+00 0.0000e+00 1.0000e+00
       22  1    1    2    0    0 -1.1602809070e+03 -1.1858148444e+03 -3.3641100249e+03 3.7509525308e+03 0.0000000000e+00 0.0000e+00 1.0000e+00
</event>
<event>
 6      1 +1.4834189e-01 1.00349800e+04 7.81653100e-03 6.93661700e-02
  1000022 -1    0    0    0    0 +0.0000000000e+00 +0.0000000000e+00 +4.4721471353e+01 1.0000100000e+04 1.0000000000e+04 0.0000e+00 1.0000e+00
  1000022 -1    0    0    0    0 -0.0000000000e+00 -0.0000000000e+00 -4.4721471353e+01 1.0000100000e+04 1.0000000000e+04 0.0000e+00 1.0000e+00
      -24  1    1    2    0    0 +3.0182973671e+03 -3.4005468201e+03 -5.2678529021e+03 6.9592014298e+03 7.9829010000e+01 0.0000e+00 1.0000e+00
       24  1    1    2    0    0 -4.8019665177e+03 +4.6152218580e+03 +7.4121551785e+03 9.9652181259e+03 7.9829010000e+01 0.0000e+00 1.0000e+00
       22  1    1    2    0    0 +1.8099203086e+03 -1.1863990365e+03 -2.1235690612e+03 3.0319795110e+03 0.0000000000e+00 0.0000e+00 1.0000e+00
       22  1    1    2    0    0 -2.6251157915e+01 -2.8276001458e+01 -2.0733215129e+01 4.3800933322e+01 0.0000000000e+00 0.0000e+00 1.0000e+00
</event>
<event>
 6      1 +1.4834189e-01 1.00886400e+04 7.81653100e-03 6.93340100e-02
  1000022 -1    0    0    0    0 +0.0000000000e+00 +0.0000000000e+00 +4.4721471353e+01 1.0000100000e+04 1.0000000000e+04 0.0000e+00 -1.0000e+00
  1000022 -1    0    0    0    0 -0.0000000000e+00 -0.0000000000e+00 -4.4721471353e+01 1.0000100000e+04 1.0000000000e+04 0.0000e+00 -1.0000e+00
      -24  1    1    2    0    0 +9.5350994453e+03 +2.3173504623e+03 +1.3944295504e+03 9.9115609789e+03 7.9829010000e+01 0.0000e+00 1.0000e+00
       24  1    1    2    0    0 -9.0835877942e+03 -2.6052602012e+03 -1.2831732109e+03 9.5368681490e+03 7.9829010000e+01 0.0000e+00 1.0000e+00
       22  1    1    2    0    0 -4.1060844226e+02 +2.8153130480e+02 -1.1228819176e+02 5.1036046716e+02 0.0000000000e+00 0.0000e+00 -1.0000e+00
       22  1    1    2    0    0 -4.0903208886e+01 +6.3784341530e+00 +1.0318522538e+00 4.1410404954e+01 0.0000000000e+00 0.0000e+00 1.0000e+00
</event>
<event>
 6      1 +1.4834189e-01 7.83280400e+03 7.81653100e-03 7.08946800e-02
  1000022 -1    0    0    0    0 +0.0000000000e+00 +0.0000000000e+00 +4.4721471353e+01 1.0000100000e+04 1.0000000000e+04 0.0000e+00 1.0000e+00
  1000022 -1    0    0    0    0 -0.0000000000e+00 -0.0000000000e+00 -4.4721471353e+01 1.0000100000e+04 1.0000000000e+04 0.0000e+00 1.0000e+00
      -24  1    1    2    0    0 -3.1132464183e+01 -1.0697453983e+02 -4.5787768309e+01 1.4450596203e+02 7.9829010000e+01 0.0000e+00 -1.0000e+00
       24  1    1    2    0    0 +3.1713320464e+03 +1.9993617120e+03 +1.1114162431e+03 3.9110628914e+03 7.9829010000e+01 0.0000e+00 -1.0000e+00
       22  1    1    2    0    0 -3.3485562436e+03 +6.0453166339e+03 -3.3531000274e+03 7.6812734565e+03 0.0000000000e+00 0.0000e+00 -1.0000e+00
       22  1    1    2    0    0 +2.0835666135e+02 -7.9377038060e+03 +2.2874715526e+03 8.2633576901e+03 0.0000000000e+00 0.0000e+00 -1.0000e+00
</event>
<event>
 6      1 +1.4834189e-01 1.00018200e+04 7.81653100e-03 6.93861600e-02
  1000022 -1    0    0    0    0 +0.0000000000e+00 +0.0000000000e+00 +4.4721471353e+01 1.0000100000e+04 1.0000000000e+04 0.0000e+00 -1.0000e+00
  1000022 -1    0    0    0    0 -0.0000000000e+00 -0.0000000000e+00 -4.4721471353e+01 1.0000100000e+04 1.0000000000e+04 0.0000e+00 -1.0000e+00
      -24  1    1    2    0    0 +1.2641221216e+02 +4.2588702789e+01 -7.8669669297e+01 1.7422810535e+02 7.9829010000e+01 0.0000e+00 0.0000e+00
       24  1    1    2    0    0 -4.0610766889e+03 -1.5670261271e+03 +2.8142124370e+03 5.1840215149e+03 7.9829010000e+01 0.0000e+00 -1.0000e+00
       22  1    1    2    0    0 +7.8718805988e+03 +2.4704149378e+03 -5.3396738994e+03 9.8275923541e+03 0.0000000000e+00 0.0000e+00 -1.0000e+00
       22  1    1    2    0    0 -3.9372161221e+03 -9.4597751346e+02 +2.6041311318e+03 4.8143580257e+03 0.0000000000e+00 0.0000e+00 1.0000e+00
</event>
<event>
 6      1 +1.4834189e-01 1.00330200e+04 7.81653100e-03 6.93673500e-02
  1000022 -1    0    0    0    0 +0.0000000000e+00 +0.0000000000e+00 +4.4721471353e+01 1.0000100000e+04 1.0000000000e+04 0.0000e+00 1.0000e+00
  1000022 -1    0    0    0    0 -0.0000000000e+00 -0.0000000000e+00 -4.4721471353e+01 1.0000100000e+04 1.0000000000e+04 0.0000e+00 1.0000e+00
      -24  1    1    2    0    0 -9.7616088181e+02 -1.0957897090e+03 +2.5049789390e+02 1.4908947043e+03 7.9829010000e+01 0.0000e+00 1.0000e+00
       24  1    1    2    0    0 +5.4197950397e+03 +5.8483476887e+03 -7.5371884634e+02 8.0094827380e+03 7.9829010000e+01 0.0000e+00 1.0000e+00
       22  1    1    2    0    0 -5.4341955143e+03 -6.5000082222e+03 +2.5844229542e+02 8.4762833953e+03 0.0000000000e+00 0.0000e+00 1.0000e+00
       22  1    1    2    0    0 +9.9056135645e+02 +1.7474502425e+03 +2.4477865702e+02 2.0235391625e+03 0.0000000000e+00 0.0000e+00 1.0000e+00
</event>
<event>
 6      1 +1.4834189e-01 1.00585600e+04 7.81653100e-03 6.93520100e-02
  1000022 -1    0    0    0    0 +0.0000000000e+00 +0.0000000000e+00 +4.4721471353e+01 1.0000100000e+04 1.0000000000e+04 0.0000e+00 -1.0000e+00
  1000022 -1    0    0    0    0 -0.0000000000e+00 -0.0000000000e+00 -4.4721471353e+01 1.0000100000e+04 1.0000000000e+04 0.0000e+00 -1.0000e+00
      -24  1    1    2    0    0 +8.4540961242e+03 -4.0758561280e+03 +2.5291276910e+03 9.7204528702e+03 7.9829010000e+01 0.0000e+00 1.0000e+00
       24  1    1    2    0    0 -8.5848596781e+03 +3.9565860123e+03 -2.3035176023e+03 9.7296944752e+03 7.9829010000e+01 0.0000e+00 1.0000e+00
       22  1    1    2    0    0 +2.1156628443e+02 -4.0360173237e+01 +5.0331103020e+01 2.2118421332e+02 0.0000000000e+00 0.0000e+00 -1.0000e+00
       22  1    1    2    0    0 -8.0802730506e+01 +1.5963028897e+02 -2.7594119173e+02 3.2886844134e+02 0.0000000000e+00 0.0000e+00 1.0000e+00
</event>
<event>
 6      1 +1.4834189e-01 1.00077400e+04 7.81653100e-03 6.93825900e-02
  1000022 -1    0    0    0    0 +0.0000000000e+00 +0.0000000000e+00 +4.4721471353e+01 1.0000100000e+04 1.0000000000e+04 0.0000e+00 -1.0000e+00
  1000022 -1    0    0    0    0 -0.0000000000e+00 -0.0000000000e+00 -4.4721471353e+01 1.0000100000e+04 1.0000000000e+04 0.0000e+00 -1.0000e+00
      -24  1    1    2    0    0 +8.3416647079e+03 +5.0166109559e+03 -9.6765136860e+02 9.7822531874e+03 7.9829010000e+01 0.0000e+00 1.0000e+00
       24  1    1    2    0    0 -6.6092447003e+03 -3.9889262513e+03 +9.9032538697e+02 7.7833646446e+03 7.9829010000e+01 0.0000e+00 1.0000e+00
       22  1    1    2    0    0 -1.9141298961e+03 -1.1330219826e+03 -1.4074716050e+01 2.2243718596e+03 0.0000000000e+00 0.0000e+00 1.0000e+00
       22  1    1    2    0    0 +1.8170988861e+02 +1.0533727797e+02 -8.5993023174e+00 2.1021030838e+02 0.0000000000e+00 0.0000e+00 1.0000e+00
</event>
<event>
 6      1 +1.4834189e-01 1.05353300e+04 7.81653100e-03 6.90738000e-02
  1000022 -1    0    0    0    0 +0.0000000000e+00 +0.0000000000e+00 +4.4721471353e+01 1.0000100000e+04 1.0000000000e+04 0.0000e+00 -1.0000e+00
  1000022 -1    0    0    0    0 -0.0000000000e+00 -0.0000000000e+00 -4.4721471353e+01 1.0000100000e+04 1.0000000000e+04 0.0000e+00 -1.0000e+00
      -24  1    1    2    0    0 -3.7180015800e+03 -7.0497828062e+03 -5.1043460063e+03 9.4648663058e+03 7.9829010000e+01 0.0000e+00 1.0000e+00
       24  1    1    2    0    0 +3.3502129367e+03 +2.7676433205e+03 +4.3878790657e+03 6.1760530792e+03 7.9829010000e+01 0.0000e+00 1.0000e+00
       22  1    1    2    0    0 +3.7379866600e+02 +4.2681800225e+03 +7.1687982155e+02 4.3440767518e+03 0.0000000000e+00 0.0000e+00 1.0000e+00
       22  1    1    2    0    0 -6.0100227116e+00 +1.3959463178e+01 -4.1288102772e-01 1.5203863191e+01 0.0000000000e+00 0.0000e+00 -1.0000e+00
</event>
<event>
 6      1 +1.4834189e-01 8.70268600e+03 7.81653100e-03 7.02367100e-02
  1000022 -1    0    0    0    0 +0.0000000000e+00 +0.0000000000e+00 +4.4721471353e+01 1.0000100000e+04 1.0000000000e+04 0.0000e+00 -1.0000e+00
  1000022 -1    0    0    0    0 -0.0000000000e+00 -0.0000000000e+00 -4.4721471353e+01 1.0000100000e+04 1.0000000000e+04 0.0000e+00 -1.0000e+00
      -24  1    1    2    0    0 +5.5079906696e+03 -6.1601431735e+03 +2.6578507185e+03 8.6807757860e+03 7.9829010000e+01 0.0000e+00 1.0000e+00
       24  1    1    2    0    0 +6.0693293375e+02 -1.4775325230e+02 -2.3443280669e+03 2.4274359654e+03 7.9829010000e+01 0.0000e+00 1.0000e+00
       22  1    1    2    0    0 +3.7114955024e+01 -3.1397393729e+01 +1.8595088504e+01 5.2048953264e+01 0.0000000000e+00 0.0000e+00 -1.0000e+00
       22  1    1    2    0    0 -6.1520385583e+03 +6.3392938195e+03 -3.3211774011e+02 8.8399392954e+03 0.0000000000e+00 0.0000e+00 1.0000e+00
</event>
<event>
 6      1 +1.4834189e-01 1.00573400e+04 7.81653100e-03 6.93527500e-02
  1000022 -1    0    0    0    0 +0.0000000000e+00 +0.0000000000e+00 +4.4721471353e+01 1.0000100000e+04 1.0000000000e+04 0.0000e+00 -1.0000e+00
  1000022 -1    0    0    0    0 -0.0000000000e+00 -0.0000000000e+00 -4.4721471353e+01 1.0000100000e+04 1.0000000000e+04 0.0000e+00 -1.0000e+00
      -24  1    1    2    0    0 -5.0662290223e+03 -6.1173397903e+03 +5.4677363770e+03 9.6431860075e+03 7.9829010000e+01 0.0000e+00 -1.0000e+00
       24  1    1    2    0    0 +4.3335618879e+03 +5.1066181333e+03 -5.5832176974e+03 8.7198623798e+03 7.9829010000e+01 0.0000e+00 -1.0000e+00
       22  1    1    2    0    0 -2.3641743546e+02 +9.0031419792e+01 +1.6064891523e+02 2.9967805109e+02 0.0000000000e+00 0.0000e+00 1.0000e+00
       22  1    1    2    0    0 +9.6908456983e+02 +9.2069023719e+02 -4.5167594804e+01 1.3374735616e+03 0.0000000000e+00 0.0000e+00 -1.0000e+00
</event>
<event>
 6      1 +1.4834189e-01 1.04181800e+04 7.81653100e-03 6.91407700e-02
  1000022 -1    0    0    0    0 +0.0000000000e+00 +0.0000000000e+00 +4.4721471353e+01 1.0000100000e+04 1.0000000000e+04 0.0000e+00 -1.0000e+00
  1000022 -1    0    0    0    0 -0.0000000000e+00 -0.0000000000e+00 -4.4721471353e+01 1.0000100000e+04 1.0000000000e+04 0.0000e+00 -1.0000e+00
      -24  1    1    2    0    0 -6.1264363442e+03 +1.0263269535e+03 -7.2953546506e+03 9.5820217827e+03 7.9829010000e+01 0.0000e+00 1.0000e+00
       24  1    1    2    0    0 +6.4831305452e+02 +6.5212009241e+00 +4.1595381253e+02 7.7443049250e+02 7.9829010000e+01 0.0000e+00 -1.0000e+00
       22  1    1    2    0    0 +3.6433559366e+03 -8.6179476815e+02 +6.8435220993e+03 7.8006748059e+03 0.0000000000e+00 0.0000e+00 1.0000e+00
       22  1    1    2    0    0 +1.8347673530e+03 -1.7105338628e+02 +3.5878738761e+01 1.8430729189e+03 0.0000000000e+00 0.0000e+00 1.0000e+00
</event>
<event>
 6      1 +1.4834189e-01 1.01748000e+04 7.81653100e-03 6.92827800e-02
  1000022 -1    0    0    0    0 +0.0000000000e+00 +0.0000000000e+00 +4.4721471353e+01 1.0000100000e+04 1.0000000000e+04 0.0000e+00 -1.0000e+00
  1000022 -1    0    0    0    0 -0.0000000000e+00 -0.0000000000e+00 -4.4721471353e+01 1.0000100000e+04 1.0000000000e+04 0.0000e+00 -1.0000e+00
      -24  1    1    2    0    0 -5.8625310910e+03 +9.5055520758e+02 +7.8268317627e+03 9.8254004554e+03 7.9829010000e+01 0.0000e+00 -1.0000e+00
       24  1    1    2    0    0 +5.7519449842e+03 -1.3375221542e+03 -7.6929754749e+03 9.6985607665e+03 7.9829010000e+01 0.0000e+00 -1.0000e+00
       22  1    1    2    0    0 +3.2386677472e+01 -1.6055394817e+01 -4.2250600014e+01 5.5603828842e+01 0.0000000000e+00 0.0000e+00 -1.0000e+00
       22  1    1    2    0    0 +7.8199429347e+01 +4.0302234148e+02 -9.1605687827e+01 4.2063494925e+02 0.0000000000e+00 0.0000e+00 1.0000e+00
</event>
<event>
 6      1 +1.4834189e-01 1.00039800e+04 7.81653100e-03 6.93848500e-02
  1000022 -1    0    0    0    0 +0.0000000000e+00 +0.0000000000e+00 +4.4721471353e+01 1.0000100000e+04 1.0000000000e+04 0.0000e+00 -1.0000e+00
  1000022 -1    0    0    0    0 -0.0000000000e+00 -0.0000000000e+00 -4.4721471353e+01 1.0000100000e+04 1.0000000000e+04 0.0000e+00 -1.0000e+00
      -24  1    1    2    0    0 -3.2633975910e+03 -2.4784521038e+03 +5.4271090000e+03 6.8009097507e+03 7.9829010000e+01 0.0000e+00 -1.0000e+00
       24  1    1    2    0    0 +4.7740340607e+03 +3.5882296523e+03 -7.9225801449e+03 9.9217156819e+03 7.9829010000e+01 0.0000e+00 -1.0000e+00
       22  1    1    2    0    0 -1.5151536729e+03 -1.1414343985e+03 +2.5712692164e+03 3.1953072657e+03 0.0000000000e+00 0.0000e+00 1.0000e+00
       22  1    1    2    0    0 +4.5172032957e+00 +3.1656850082e+01 -7.5798071540e+01 8.2267301718e+01 0.0000000000e+00 0.0000e+00 -1.0000e+00
</event>
<event>
 6      1 +1.4834189e-01 1.00822700e+04 7.81653100e-03 6.93378200e-02
  1000022 -1    0    0    0    0 +0.0000000000e+00 +0.0000000000e+00 +4.4721471353e+01 1.0000100000e+04 1.0000000000e+04 0.0000e+00 1.0000e+00
  1000022 -1    0    0    0    0 -0.0000000000e+00 -0.0000000000e+00 -4.4721471353e+01 1.0000100000e+04 1.0000000000e+04 0.0000e+00 1.0000e+00
      -24  1    1    2    0    0 +2.8695618446e+03 -9.1072811779e+03 -1.0278145310e+03 9.6041517592e+03 7.9829010000e+01 0.0000e+00 -1.0000e+00
       24  1    1    2    0    0 -2.6867532426e+03 +9.5001050112e+03 +9.4249438877e+02 9.9179285415e+03 7.9829010000e+01 0.0000e+00 -1.0000e+00
       22  1    1    2    0    0 -2.0973994975e+02 -3.3160117986e+02 +1.0890597419e+02 4.0719860046e+02 0.0000000000e+00 0.0000e+00 -1.0000e+00
       22  1    1    2    0    0 +2.6931347745e+01 -6.1222653461e+01 -2.3585831969e+01 7.0921098820e+01 0.0000000000e+00 0.0000e+00 1.0000e+00
</event>
<event>
 6      1 +1.4834189e-01 1.00004000e+04 7.81653100e-03 6.93870100e-02
  1000022 -1    0    0    0    0 +0.0000000000e+00 +0.0000000000e+00 +4.4721471353e+01 1.0000100000e+04 1.0000000000e+04 0.0000e+00 1.0000e+00
  1000022 -1    0    0    0    0 -0.0000000000e+00 -0.0000000000e+00 -4.4721471353e+01 1.0000100000e+04 1.0000000000e+04 0.0000e+00 1.0000e+00
      -24  1    1    2    0    0 -7.9402751999e+03 -4.2910924005e+03 -4.1680001183e+03 9.9418329244e+03 7.9829010000e+01 0.0000e+00 -1.0000e+00
       24  1    1    2    0    0 +7.9176004222e+03 +4.2774529723e+03 +4.1466009972e+03 9.9088683953e+03 7.9829010000e+01 0.0000e+00 -1.0000e+00
       22  1    1    2    0    0 +6.5605831496e+01 +4.2122028577e+01 +4.7960351565e+01 9.1534614983e+01 0.0000000000e+00 0.0000e+00 -1.0000e+00
       22  1    1    2    0    0 -4.2931053796e+01 -2.8482600355e+01 -2.6561230398e+01 5.7964065276e+01 0.0000000000e+00 0.0000e+00 -1.0000e+00
</event>
<event>
 6      1 +1.4834189e-01 1.00193000e+04 7.81653100e-03 6.93756100e-02
  1000022 -1    0    0    0    0 +0.0000000000e+00 +0.0000000000e+00 +4.4721471353e+01 1.0000100000e+04 1.0000000000e+04 0.0000e+00 -1.0000e+00
  1000022 -1    0    0    0    0 -0.0000000000e+00 -0.0000000000e+00 -4.4721471353e+01 1.0000100000e+04 1.0000000000e+04 0.0000e+00 -1.0000e+00
      -24  1    1    2    0    0 +5.4679964701e+03 -8.2156600697e+03 -1.4885747013e+03 9.9808959062e+03 7.9829010000e+01 0.0000e+00 -1.0000e+00
       24  1    1    2    0    0 -5.2283224886e+02 +5.0803494867e+02 +8.6449991710e+01 7.3844386477e+02 7.9829010000e+01 0.0000e+00 -1.0000e+00
       22  1    1    2    0    0 +1.0691559961e+01 +2.6614942834e+01 +2.2180654675e+01 3.6258048462e+01 0.0000000000e+00 0.0000e+00 -1.0000e+00
       22  1    1    2    0    0 -4.9558557812e+03 +7.6810101782e+03 +1.3799440550e+03 9.2446021806e+03 0.0000000000e+00 0.0000e+00 -1.0000e+00
</event>
<event>
 6      1 +1.4834189e-01 1.00652800e+04 7.81653100e-03 6.93479800e-02
  1000022 -1    0    0    0    0 +0.0000000000e+00 +0.0000000000e+00 +4.4721471353e+01 1.0000100000e+04 1.0000000000e+04 0.0000e+00 1.0000e+00
  1000022 -1    0    0    0    0 -0.0000000000e+00 -0.0000000000e+00 -4.4721471353e+01 1.0000100000e+04 1.0000000000e+04 0.0000e+00 1.0000e+00
      -24  1    1    2    0    0 +1.0016567784e+03 +1.1574656472e+03 +9.2136832022e+02 1.7883890176e+03 7.9829010000e+01 0.0000e+00 -1.0000e+00
       24  1    1    2    0    0 -6.3946905701e+03 -3.5797912925e+03 -6.7073987514e+03 9.9349153930e+03 7.9829010000e+01 0.0000e+00 1.0000e+00
       22  1    1    2    0    0 +1.4440113941e+01 +1.3732519088e+01 +4.6308478330e+01 5.0414027179e+01 0.0000000000e+00 0.0000e+00 -1.0000e+00
       22  1    1    2    0    0 +5.3785936777e+03 +2.4085931262e+03 +5.7397219528e+03 8.2264815622e+03 0.0000000000e+00 0.0000e+00 1.0000e+00
</event>
<event>
 6      1 +1.4834189e-01 1.00189700e+04 7.81653100e-03 6.93758100e-02
  1000022 -1    0    0    0    0 +0.0000000000e+00 +0.0000000000e+00 +4.4721471353e+01 1.0000100000e+04 1.0000000000e+04 0.0000e+00 1.0000e+00
  1000022 -1    0    0    0    0 -0.0000000000e+00 -0.0000000000e+00 -4.4721471353e+01 1.0000100000e+04 1.0000000000e+04 0.0000e+00 1.0000e+00
      -24  1    1    2    0    0 +1.6956985445e+03 +7.8784484770e+03 -3.1575250000e+03 8.6557310930e+03 7.9829010000e+01 0.0000e+00 0.0000e+00
       24  1    1    2    0    0 -1.9041618700e+03 -9.0628287124e+03 +3.5397049730e+03 9.9144632061e+03 7.9829010000e+01 0.0000e+00 1.0000e+00
       22  1    1    2    0    0 -5.3950525130e+01 -2.7983165143e+01 +8.5013472267e+01 1.0450362271e+02 0.0000000000e+00 0.0000e+00 1.0000e+00
       22  1    1    2    0    0 +2.6241385062e+02 +1.2123634006e+03 -4.6719344532e+02 1.3255020782e+03 0.0000000000e+00 0.0000e+00 1.0000e+00
</event>
<event>
 6      1 +1.4834189e-01 1.12248900e+04 7.81653100e-03 6.86965700e-02
  1000022 -1    0    0    0    0 +0.0000000000e+00 +0.0000000000e+00 +4.4721471353e+01 1.0000100000e+04 1.0000000000e+04 0.0000e+00 1.0000e+00
  1000022 -1    0    0    0    0 -0.0000000000e+00 -0.0000000000e+00 -4.4721471353e+01 1.0000100000e+04 1.0000000000e+04 0.0000e+00 1.0000e+00
      -24  1    1    2    0    0 +1.4734144565e+03 -4.9053071221e+03 +6.4875541986e+03 8.2660583275e+03 7.9829010000e+01 0.0000e+00 1.0000e+00
       24  1    1    2    0    0 -3.7361502898e+03 +3.4058022306e+03 -6.8531099586e+03 8.5164427197e+03 7.9829010000e+01 0.0000e+00 1.0000e+00
       22  1    1    2    0    0 -1.1956693214e+02 -1.8021430260e+02 -1.4225893189e+02 2.5886492583e+02 0.0000000000e+00 0.0000e+00 -1.0000e+00
       22  1    1    2    0    0 +2.3823027655e+03 +1.6797191941e+03 +5.0781469190e+02 2.9588340269e+03 0.0000000000e+00 0.0000e+00 1.0000e+00
</event>
<event>
 6      1 +1.4834189e-01 1.00333200e+04 7.81653100e-03 6.93671700e-02
  1000022 -1    0    0    0    0 +0.0000000000e+00 +0.0000000000e+00 +4.4721471353e+01 1.0000100000e+04 1.0000000000e+04 0.0000e+00 1.0000e+00
  1000022 -1    0    0    0    0 -0.0000000000e+00 -0.0000000000e+00 -4.4721471353e+01 1.0000100000e+04 1.0000000000e+04 0.0000e+00 1.0000e+00
      -24  1    1    2    0    0 -6.2297315046e+03 -6.5872373705e+03 -4.1389719285e+03 9.9668807603e+03 7.9829010000e+01 0.0000e+00 -1.0000e+00
       24  1    1    2    0    0 +5.3056057969e+03 +5.7817908699e+03 +3.6573422152e+03 8.6580068887e+03 7.9829010000e+01 0.0000e+00 -1.0000e+00
       22  1    1    2    0    0 +6.2631627987e+02 +6.7843604475e+02 +5.0187644954e+02 1.0509174658e+03 0.0000000000e+00 0.0000e+00 -1.0000e+00
       22  1    1    2    0    0 +2.9780942781e+02 +1.2701045587e+02 -2.0246736279e+01 3.2439488517e+02 0.0000000000e+00 0.0000e+00 1.0000e+00
</event>
<event>
 6      1 +1.4834189e-01 1.00141600e+04 7.81653100e-03 6.93787100e-02
  1000022 -1    0    0    0    0 +0.0000000000e+00 +0.0000000000e+00 +4.4721471353e+01 1.0000100000e+04 1.0000000000e+04 0.0000e+00 1.0000e+00
  1000022 -1    0    0    0    0 -0.0000000000e+00 -0.0000000000e+00 -4.4721471353e+01 1.0000100000e+04 1.0000000000e+04 0.0000e+00 1.0000e+00
      -24  1    1    2    0    0 +4.6912382718e+02 +3.6312009839e+03 +8.4007755632e+03 9.1643385187e+03 7.9829010000e+01 0.0000e+00 1.0000e+00
       24  1    1    2    0    0 -4.9652631945e+02 -3.7915170279e+03 -9.1982773675e+03 9.9617678632e+03 7.9829010000e+01 0.0000e+00 1.0000e+00
       22  1    1    2    0    0 +1.1076740732e+01 -5.1075377440e+01 +3.6206147065e+00 5.2387949155e+01 0.0000000000e+00 0.0000e+00 -1.0000e+00
       22  1    1    2    0    0 +1.6325751534e+01 +2.1139142144e+02 +7.9388118964e+02 8.2170566901e+02 0.0000000000e+00 0.0000e+00 1.0000e+00
</event>
<event>
 6      1 +1.4834189e-01 1.00018400e+04 7.81653100e-03 6.93861400e-02
  1000022 -1    0    0    0    0 +0.0000000000e+00 +0.0000000000e+00 +4.4721471353e+01 1.0000100000e+04 1.0000000000e+04 0.0000e+00 1.0000e+00
  1000022 -1    0    0    0    0 -0.0000000000e+00 -0.0000000000e+00 -4.4721471353e+01 1.0000100000e+04 1.0000000000e+04 0.0000e+00 1.0000e+00
      -24  1    1    2    0    0 -9.2761478632e+02 -9.7625240015e+03 -1.4168115144e+03 9.9086362134e+03 7.9829010000e+01 0.0000e+00 1.0000e+00
       24  1    1    2    0    0 +9.4899064277e+02 +9.8219485919e+03 +1.4300517592e+03 9.9710921211e+03 7.9829010000e+01 0.0000e+00 1.0000e+00
       22  1    1    2    0    0 -1.2449135148e+01 -8.8453513400e+01 -8.4228409883e+00 8.9721509401e+01 0.0000000000e+00 0.0000e+00 -1.0000e+00
       22  1    1    2    0    0 -8.9267213037e+00 +2.9028922981e+01 -4.8174038930e+00 3.0750156145e+01 0.0000000000e+00 0.0000e+00 -1.0000e+00
</event>
<event>
 6      1 +1.4834189e-01 1.12060100e+04 7.81653100e-03 6.87065400e-02
  1000022 -1    0    0    0    0 +0.0000000000e+00 +0.0000000000e+00 +4.4721471353e+01 1.0000100000e+04 1.0000000000e+04 0.0000e+00 -1.0000e+00
  1000022 -1    0    0    0    0 -0.0000000000e+00 -0.0000000000e+00 -4.4721471353e+01 1.0000100000e+04 1.0000000000e+04 0.0000e+00 -1.0000e+00
      -24  1    1    2    0    0 +5.1048250361e+03 -6.2904208652e+03 +3.3170539046e+03 8.7543048032e+03 7.9829010000e+01 0.0000e+00 1.0000e+00
       24  1    1    2    0    0 -3.5487339628e+03 +6.1994190808e+03 +3.9298435467e+02 7.1545173878e+03 7.9829010000e+01 0.0000e+00 1.0000e+00
       22  1    1    2    0    0 -1.5765043227e+03 +1.1862233642e+02 -3.7303075812e+03 4.0514974748e+03 0.0000000000e+00 0.0000e+00 1.0000e+00
       22  1    1    2    0    0 +2.0413249331e+01 -2.7620552013e+01 +2.0269321916e+01 3.9880334160e+01 0.0000000000e+00 0.0000e+00 1.0000e+00
</event>
<event>
 6      1 +1.4834189e-01 1.00551300e+04 7.81653100e-03 6.93540700e-02
  1000022 -1    0    0    0    0 +0.0000000000e+00 +0.0000000000e+00 +4.4721471353e+01 1.0000100000e+04 1.0000000000e+04 0.0000e+00 1.0000e+00
  1000022 -1    0    0    0    0 -0.0000000000e+00 -0.0000000000e+00 -4.4721471353e+01 1.0000100000e+04 1.0000000000e+04 0.0000e+00 1.0000e+00
      -24  1    1    2    0    0 -9.1126629415e+03 -3.0761336075e+03 -7.0688105346e+02 9.6441317573e+03 7.9829010000e+01 0.0000e+00 -1.0000e+00
       24  1    1    2    0    0 +9.3858568554e+03 +2.8710334515e+03 +5.8408320546e+02 9.8328362058e+03 7.9829010000e+01 0.0000e+00 -1.0000e+00
       22  1    1    2    0    0 -2.9984889099e+02 +7.5501526668e+00 +2.4415824003e+01 3.0093603091e+02 0.0000000000e+00 0.0000e+00 -1.0000e+00
       22  1    1    2    0    0 +2.6654977160e+01 +1.9755000335e+02 +9.8382024000e+01 2.2229600599e+02 0.0000000000e+00 0.0000e+00 -1.0000e+00
</event>
<event>
 6      1 +1.4834189e-01 1.00157400e+04 7.81653100e-03 6.93777600e-02
  1000022 -1    0    0    0    0 +0.0000000000e+00 +0.0000000000e+00 +4.4721471353e+01 1.0000100000e+04 1.0000000000e+04 0.0000e+00 -1.0000e+00
  1000022 -1    0    0    0    0 -0.0000000000e+00 -0.0000000000e+00 -4.4721471353e+01 1.0000100000e+04 1.0000000000e+04 0.0000e+00 -1.0000e+00
      -24  1    1    2    0    0 -1.0936834533e+01 +2.1683393858e+01 -3.3284986070e+02 3.4314936183e+02 7.9829010000e+01 0.0000e+00 0.0000e+00
       24  1    1    2    0    0 -2.8244187719e+03 -1.9311993305e+03 +8.8613295589e+03 9.4992845244e+03 7.9829010000e+01 0.0000e+00 1.0000e+00
       22  1    1    2    0    0 -1.6006797117e+02 -1.2247703062e+02 +4.4132942751e+02 4.8517423881e+02 0.0000000000e+00 0.0000e+00 1.0000e+00
       22  1    1    2    0    0 +2.9954235776e+03 +2.0319929673e+03 -8.9698091257e+03 9.6725918750e+03 0.0000000000e+00 0.0000e+00 1.0000e+00
</event>
<event>
 6      1 +1.4834189e-01 1.00031400e+04 7.81653100e-03 6.93853600e-02
  1000022 -1    0    0    0    0 +0.0000000000e+00 +0.0000000000e+00 +4.4721471353e+01 1.0000100000e+04 1.0000000000e+04 0.0000e+00 1.0000e+00
  1000022 -1    0    0    0    0 -0.0000000000e+00 -0.0000000000e+00 -4.4721471353e+01 1.0000100000e+04 1.0000000000e+04 0.0000e+00 1.0000e+00
      -24  1    1    2    0    0 +2.3302580799e+03 -7.1956873346e+02 +3.3036597976e+03 4.1071185289e+03 7.9829010000e+01 0.0000e+00 1.0000e+00
       24  1    1    2    0    0 -5.4922118979e+03 +1.9478027122e+03 -7.0279063926e+03 9.1299599052e+03 7.9829010000e+01 0.0000e+00 1.0000e+00
       22  1    1    2    0    0 -5.5764709553e+02 +8.1184080636e+01 -6.5901978865e+02 8.6710335020e+02 0.0000000000e+00 0.0000e+00 1.0000e+00
       22  1    1    2    0    0 +3.7196009135e+03 -1.3094180594e+03 +4.3832663836e+03 5.8960182157e+03 0.0000000000e+00 0.0000e+00 1.0000e+00
</event>
<event>
 6      1 +1.4834189e-01 1.00003900e+04 7.81653100e-03 6.93870200e-02
  1000022 -1    0    0    0    0 +0.0000000000e+00 +0.0000000000e+00 +4.4721471353e+01 1.0000100000e+04 1.0000000000e+04 0.0000e+00 -1.0000e+00
  1000022 -1    0    0    0    0 -0.0000000000e+00 -0.0000000000e+00 -4.4721471353e+01 1.0000100000e+04 1.0000000000e+04 0.0000e+00 -1.0000e+00
      -24  1    1    2    0    0 -8.5542831815e+03 -4.2140003529e+03 +6.9942886525e+02 9.5618582468e+03 7.9829010000e+01 0.0000e+00 1.0000e+00
       24  1    1    2    0    0 +8.8735697872e+03 +4.4011068003e+03 -7.4427169307e+02 9.9332922468e+03 7.9829010000e+01 0.0000e+00 1.0000e+00
       22  1    1    2    0    0 -3.7225799060e+02 -2.2734103982e+02 +4.5253191470e+01 4.3852914532e+02 0.0000000000e+00 0.0000e+00 -1.0000e+00
       22  1    1    2    0    0 +5.2971384901e+01 +4.0234592375e+01 -4.1036364947e-01 6.6520361095e+01 0.0000000000e+00 0.0000e+00 -1.0000e+00
</event>
<event>
 6      1 +1.4834189e-01 1.01356100e+04 7.81653100e-03 6.93060200e-02
  1000022 -1    0    0    0    0 +0.0000000000e+00 +0.0000000000e+00 +4.4721471353e+01 1.0000100000e+04 1.0000000000e+04 0.0000e+00 -1.0000e+00
  1000022 -1    0    0    0    0 -0.0000000000e+00 -0.0000000000e+00 -4.4721471353e+01 1.0000100000e+04 1.0000000000e+04 0.0000e+00 -1.0000e+00
      -24  1    1    2    0    0 +8.3219234138e+03 -1.4013440113e+03 -5.0750541512e+03 9.8478790434e+03 7.9829010000e+01 0.0000e+00 -1.0000e+00
       24  1    1    2    0    0 -7.3960434375e+03 +1.9683027595e+03 +4.6589618636e+03 8.9603556068e+03 7.9829010000e+01 0.0000e+00 -1.0000e+00
       22  1    1    2    0    0 +1.3614445594e+01 -3.2532522017e+00 -9.1265306280e+00 1.6710186714e+01 0.0000000000e+00 0.0000e+00 1.0000e+00
       22  1    1    2    0    0 -9.3949442197e+02 -5.6370549604e+02 +4.2521881825e+02 1.1752551632e+03 0.0000000000e+00 0.0000e+00 -1.0000e+00
</event>
<event>
 6      1 +1.4834189e-01 1.00445500e+04 7.81653100e-03 6.93604300e-02
  1000022 -1    0    0    0    0 +0.0000000000e+00 +0.0000000000e+00 +4.4721471353e+01 1.0000100000e+04 1.0000000000e+04 0.0000e+00 -1.0000e+00
  1000022 -1    0    0    0    0 -0.0000000000e+00 -0.0000000000e+00 -4.4721471353e+01 1.0000100000e+04 1.0000000000e+04 0.0000e+00 -1.0000e+00
      -24  1    1    2    0    0 -3.4068289907e+03 +4.3932609891e+03 +8.2584179526e+03 9.9556549579e+03 7.9829010000e+01 0.0000e+00 -1.0000e+00
       24  1    1    2    0    0 +3.1525073548e+03 -3.5158973213e+03 -6.5724466231e+03 8.0934086688e+03 7.9829010000e+01 0.0000e+00 -1.0000e+00
       22  1    1    2    0    0 +1.8526786305e+02 -1.6373321548e+02 -2.8454583556e+02 3.7696031550e+02 0.0000000000e+00 0.0000e+00 -1.0000e+00
       22  1    1    2    0    0 +6.9053772804e+01 -7.1363045226e+02 -1.4014254939e+03 1.5741760578e+03 0.0000000000e+00 0.0000e+00 -1.0000e+00
</event>
<event>
 6      1 +1.4834189e-01 1.00159500e+04 7.81653100e-03 6.93776300e-02
  1000022 -1    0    0    0    0 +0.0000000000e+00 +0.0000000000e+00 +4.4721471353e+01 1.0000100000e+04 1.0000000000e+04 0.0000e+00 1.0000e+00
  1000022 -1    0    0    0    0 -0.0000000000e+00 -0.0000000000e+00 -4.4721471353e+01 1.0000100000e+04 1.0000000000e+04 0.0000e+00 1.0000e+00
      -24  1    1    2    0    0 -2.6197898939e+03 -9.3351760952e+03 +2.3812050599e+03 9.9842537039e+03 7.9829010000e+01 0.0000e+00 -1.0000e+00
       24  1    1    2    0    0 +2.2020598251e+03 +7.7792716158e+03 -1.9026439066e+03 8.3061760668e+03 7.9829010000e+01 0.0000e+00 -1.0000e+00
       22  1    1    2    0    0 +4.5766547271e+02 +1.4661238232e+03 -4.0913129267e+02 1.5894543606e+03 0.0000000000e+00 0.0000e+00 1.0000e+00
       22  1    1    2    0    0 -3.9935403932e+01 +8.9780656179e+01 -6.9429860669e+01 1.2031586871e+02 0.0000000000e+00 0.0000e+00 -1.0000e+00
</event>
<event>
 6      1 +1.4834189e-01 1.00544200e+04 7.81653100e-03 6.93545000e-02
  1000022 -1    0    0    0    0 +0.0000000000e+00 +0.0000000000e+00 +4.4721471353e+01 1.0000100000e+04 1.0000000000e+04 0.0000e+00 -1.0000e+00
  1000022 -1    0    0    0    0 -0.0000000000e+00 -0.0000000000e+00 -4.4721471353e+01 1.0000100000e+04 1.0000000000e+04 0.0000e+00 -1.0000e+00
      -24  1    1    2    0    0 +8.5986388695e+03 +4.9772612968e+03 -4.4985959821e+02 9.9457763273e+03 7.9829010000e+01 0.0000e+00 1.0000e+00
       24  1    1    2    0    0 -2.0822850311e+03 -1.3894518534e+03 +1.2699742968e+02 2.5077855613e+03 7.9829010000e+01 0.0000e+00 1.0000e+00
       22  1    1    2    0    0 +2.4903707625e+01 -7.0053087895e+01 +8.8771609823e+01 1.1579304162e+02 0.0000000000e+00 0.0000e+00 -1.0000e+00
       22  1    1    2    0    0 -6.5412575461e+03 -3.5177563555e+03 +2.3409055871e+02 7.4308450697e+03 0.0000000000e+00 0.0000e+00 1.0000e+00
</event>
<event>
 6      1 +1.4834189e-01 1.10342000e+04 7.81653100e-03 6.87981100e-02
  1000022 -1    0    0    0    0 +0.0000000000e+00 +0.0000000000e+00 +4.4721471353e+01 1.0000100000e+04 1.0000000000e+04 0.0000e+00 -1.0000e+00
  1000022 -1    0    0    0    0 -0.0000000000e+00 -0.0000000000e+00 -4.4721471353e+01 1.0000100000e+04 1.0000000000e+04 0.0000e+00 -1.0000e+00
      -24  1    1    2    0    0 +5.8428476587e+02 -3.0485818636e+03 +4.8385204625e+02 3.1425667122e+03 7.9829010000e+01 0.0000e+00 1.0000e+00
       24  1    1    2    0    0 -7.8978452384e+02 +8.8594240840e+03 +1.1267724798e+03 8.9659993077e+03 7.9829010000e+01 0.0000e+00 1.0000e+00
       22  1    1    2    0    0 +1.3888219981e+03 -5.2487626327e+03 +4.5197216951e+02 5.4481753422e+03 0.0000000000e+00 0.0000e+00 1.0000e+00
       22  1    1    2    0    0 -1.1833222401e+03 -5.6207958762e+02 -2.0625966956e+03 2.4434586380e+03 0.0000000000e+00 0.0000e+00 1.0000e+00
</event>
<event>
 6      1 +1.4834189e-01 1.00027100e+04 7.81653100e-03 6.93856200e-02
  1000022 -1    0    0    0    0 +0.0000000000e+00 +0.0000000000e+00 +4.4721471353e+01 1.0000100000e+04 1.0000000000e+04 0.0000e+00 -1.0000e+00
  1000022 -1    0    0    0    0 -0.0000000000e+00 -0.0000000000e+00 -4.4721471353e+01 1.0000100000e+04 1.0000000000e+04 0.0000e+00 -1.0000e+00
      -24  1    1    2    0    0 +9.2620494507e+03 +1.7900989625e+03 +3.2893429545e+03 9.9908039750e+03 7.9829010000e+01 0.0000e+00 1.0000e+00
       24  1    1    2    0    0 -9.2433775060e+03 -1.7812406509e+03 -3.2727876511e+03 9.9664616417e+03 7.9829010000e+01 0.0000e+00 1.0000e+00
       22  1    1    2    0    0 -2.8474956016e+01 -4.3325997487e+00 -1.1526285330e+01 3.1023374964e+01 0.0000000000e+00 0.0000e+00 -1.0000e+00
       22  1    1    2    0    0 +9.8030112774e+00 -4.5257118029e+00 -5.0290181434e+00 1.1911008392e+01 0.0000000000e+00 0.0000e+00 -1.0000e+00
</event>
<event>
 6      1 +1.4834189e-01 1.00042700e+04 7.81653100e-03 6.93846800e-02
  1000022 -1    0    0    0    0 +0.0000000000e+00 +0.0000000000e+00 +4.4721471353e+01 1.0000100000e+04 1.0000000000e+04 0.0000e+00 -1.0000e+00
  1000022 -1    0    0    0    0 -0.0000000000e+00 -0.0000000000e+00 -4.4721471353e+01 1.0000100000e+04 1.0000000000e+04 0.0000e+00 -1.0000e+00
      -24  1    1    2    0    0 +9.8588936944e+03 -9.3479525150e+02 -1.1471758280e+03 9.9696545623e+03 7.9829010000e+01 0.0000e+00 1.0000e+00
       24  1    1    2    0    0 -9.8712105914e+03 +9.4985733475e+02 +1.1341114855e+03 9.9817638236e+03 7.9829010000e+01 0.0000e+00 1.0000e+00
       22  1    1    2    0    0 +2.5879561139e+01 -1.9148177510e+01 +1.2712844956e+01 3.4612437267e+01 0.0000000000e+00 0.0000e+00 -1.0000e+00
       22  1    1    2    0    0 -1.3562664097e+01 +4.0860942571e+00 +3.5149754551e-01 1.4169176907e+01 0.0000000000e+00 0.0000e+00 -1.0000e+00
</event>
<event>
 6      1 +1.4834189e-01 1.00970400e+04 7.81653100e-03 6.93289900e-02
  1000022 -1    0    0    0    0 +0.0000000000e+00 +0.0000000000e+00 +4.4721471353e+01 1.0000100000e+04 1.0000000000e+04 0.0000e+00 1.0000e+00
  1000022 -1    0    0    0    0 -0.0000000000e+00 -0.0000000000e+00 -4.4721471353e+01 1.0000100000e+04 1.0000000000e+04 0.0000e+00 1.0000e+00
      -24  1    1    2    0    0 +9.5365449847e+02 -9.3852282319e+03 -3.0123383535e+03 9.9031571175e+03 7.9829010000e+01 0.0000e+00 1.0000e+00
       24  1    1    2    0    0 -1.7159704918e+02 +3.1742825414e+03 +6.3323586815e+02 3.2423564787e+03 7.9829010000e+01 0.0000e+00 1.0000e+00
       22  1    1    2    0    0 -4.5123319646e+02 +1.0566844732e+03 -4.3622410433e+01 1.1498245032e+03 0.0000000000e+00 0.0000e+00 -1.0000e+00
       22  1    1    2    0    0 -3.3082425283e+02 +5.1542612174e+03 +2.4227248958e+03 5.7048619005e+03 0.0000000000e+00 0.0000e+00 1.0000e+00
</event>
<event>
 6      1 +1.4834189e-01 1.01665500e+04 7.81653100e-03 6.92876600e-02
  1000022 -1    0    0    0    0 +0.0000000000e+00 +0.0000000000e+00 +4.4721471353e+01 1.0000100000e+04 1.0000000000e+04 0.0000e+00 1.0000e+00
  1000022 -1    0    0    0    0 -0.0000000000e+00 -0.0000000000e+00 -4.4721471353e+01 1.0000100000e+04 1.0000000000e+04 0.0000e+00 1.0000e+00
      -24  1    1    2    0    0 -4.3658246668e+03 -7.6917343399e+03 -4.2978087901e+03 9.8336531993e+03 7.9829010000e+01 0.0000e+00 -1.0000e+00
       24  1    1    2    0    0 +1.7360763423e+03 +1.7711856535e+03 +2.2832394307e+03 3.3720342012e+03 7.9829010000e+01 0.0000e+00 -1.0000e+00
       22  1    1    2    0    0 +2.5390690540e+03 +5.8354284011e+03 +1.9618142529e+03 6.6594152482e+03 0.0000000000e+00 0.0000e+00 -1.0000e+00
       22  1    1    2    0    0 +9.0679270555e+01 +8.5120285202e+01 +5.2755106575e+01 1.3509735131e+02 0.0000000000e+00 0.0000e+00 1.0000e+00
</event>
<event>
 6      1 +1.4834189e-01 1.00141000e+04 7.81653100e-03 6.93787400e-02
  1000022 -1    0    0    0    0 +0.0000000000e+00 +0.0000000000e+00 +4.4721471353e+01 1.0000100000e+04 1.0000000000e+04 0.0000e+00 -1.0000e+00
  1000022 -1    0    0    0    0 -0.0000000000e+00 -0.0000000000e+00 -4.4721471353e+01 1.0000100000e+04 1.0000000000e+04 0.0000e+00 -1.0000e+00
      -24  1    1    2    0    0 +3.9295950649e+03 -7.4202158817e+03 +2.0803269647e+03 8.6507487569e+03 7.9829010000e+01 0.0000e+00 1.0000e+00
       24  1    1    2    0    0 -4.1643267315e+03 +8.4476183231e+03 -2.3859960368e+03 9.7161320605e+03 7.9829010000e+01 0.0000e+00 1.0000e+00
       22  1    1    2    0    0 +3.4043028143e+02 -1.2625763161e+03 +3.8567738838e+02 1.3633557050e+03 0.0000000000e+00 0.0000e+00 1.0000e+00
       22  1    1    2    0    0 -1.0569861477e+02 +2.3517387472e+02 -8.0008316348e+01 2.6996347753e+02 0.0000000000e+00 0.0000e+00 -1.0000e+00
</event>
<event>
 6      1 +1.4834189e-01 1.00538700e+04 7.81653100e-03 6.93548300e-02
  1000022 -1    0    0    0    0 +0.0000000000e+00 +0.0000000000e+00 +4.4721471353e+01 1.0000100000e+04 1.0000000000e+04 0.0000e+00 -1.0000e+00
  1000022 -1    0    0    0    0 -0.0000000000e+00 -0.0000000000e+00 -4.4721471353e+01 1.0000100000e+04 1.0000000000e+04 0.0000e+00 -1.0000e+00
      -24  1    1    2    0    0 +4.5232806958e+03 -2.0393707916e+03 +2.1334774185e+03 5.4015923620e+03 7.9829010000e+01 0.0000e+00 1.0000e+00
       24  1    1    2    0    0 -8.5185143764e+03 +3.4489393730e+03 -3.8030029357e+03 9.9463296738e+03 7.9829010000e+01 0.0000e+00 1.0000e+00
       22  1    1    2    0    0 +3.5655469566e+03 -1.4919132628e+03 +1.6805374426e+03 4.2146335997e+03 0.0000000000e+00 0.0000e+00 1.0000e+00
       22  1    1    2    0    0 +4.2968672399e+02 +8.2344681511e+01 -1.1011925402e+01 4.3764436458e+02 0.0000000000e+00 0.0000e+00 1.0000e+00
</event>
<event>
 6      1 +1.4834189e-01 1.10619600e+04 7.81653100e-03 6.87832000e-02
  1000022 -1    0    0    0    0 +0.0000000000e+00 +0.0000000000e+00 +4.4721471353e+01 1.0000100000e+04 1.0000000000e+04 0.0000e+00 1.0000e+00
  1000022 -1    0    0    0    0 -0.0000000000e+00 -0.0000000000e+00 -4.4721471353e+01 1.0000100000e+04 1.0000000000e+04 0.0000e+00 1.0000e+00
      -24  1    1    2    0    0 -9.2087077831e+02 +2.0787494261e+03 +7.4956030311e+03 7.8332394089e+03 7.9829010000e+01 0.0000e+00 1.0000e+00
       24  1    1    2    0    0 +3.1598124290e+03 -2.9413118845e+03 -7.8262389583e+03 8.9382391494e+03 7.9829010000e+01 0.0000e+00 1.0000e+00
       22  1    1    2    0    0 -1.5754629867e+03 -2.6218054574e+02 +8.6668009738e+02 1.8171286835e+03 0.0000000000e+00 0.0000e+00 1.0000e+00
       22  1    1    2    0    0 -6.6347866398e+02 +1.1247430041e+03 -5.3604417011e+02 1.4115927582e+03 0.0000000000e+00 0.0000e+00 -1.0000e+00
</event>
<event>
 6      1 +1.4834189e-01 7.80798400e+03 7.81653100e-03 7.09147100e-02
  1000022 -1    0    0    0    0 +0.0000000000e+00 +0.0000000000e+00 +4.4721471353e+01 1.0000100000e+04 1.0000000000e+04 0.0000e+00 -1.0000e+00
  1000022 -1    0    0    0    0 -0.0000000000e+00 -0.0000000000e+00 -4.4721471353e+01 1.0000100000e+04 1.0000000000e+04 0.0000e+00 -1.0000e+00
      -24  1    1    2    0    0 +7.8638277962e+02 +3.5198524938e+03 -1.2938327975e+03 3.8325103304e+03 7.9829010000e+01 0.0000e+00 1.0000e+00
       24  1    1    2    0    0 +1.3281050712e+03 -5.1546817058e+03 +7.5992158888e+03 9.2784191198e+03 7.9829010000e+01 0.0000e+00 1.0000e+00
       22  1    1    2    0    0 -2.1241087890e+03 +1.5664431649e+03 -6.2859444893e+03 6.8175274446e+03 0.0000000000e+00 0.0000e+00 1.0000e+00
       22  1    1    2    0    0 +9.6209381919e+00 +6.8386047041e+01 -1.9438601989e+01 7.1743105097e+01 0.0000000000e+00 0.0000e+00 1.0000e+00
</event>
<event>
 6      1 +1.4834189e-01 1.01222100e+04 7.81653100e-03 6.93139800e-02
  1000022 -1    0    0    0    0 +0.0000000000e+00 +0.0000000000e+00 +4.4721471353e+01 1.0000100000e+04 1.0000000000e+04 0.0000e+00 1.0000e+00
  1000022 -1    0    0    0    0 -0.0000000000e+00 -0.0000000000e+00 -4.4721471353e+01 1.0000100000e+04 1.0000000000e+04 0.0000e+00 1.0000e+00
      -24  1    1    2    0    0 -2.1587664106e+02 -1.1932577637e+03 -1.0037043561e+03 1.5761541549e+03 7.9829010000e+01 0.0000e+00 -1.0000e+00
       24  1    1    2    0    0 +3.4946637941e+03 +8.8177527183e+03 +1.9347817497e+03 9.6806606760e+03 7.9829010000e+01 0.0000e+00 -1.0000e+00
       22  1    1    2    0    0 -3.3453696307e+03 -7.8020658426e+03 -9.8559981662e+02 8.5460596988e+03 0.0000000000e+00 0.0000e+00 -1.0000e+00
       22  1    1    2    0    0 +6.6582477663e+01 +1.7757088799e+02 +5.4522423041e+01 1.9732547025e+02 0.0000000000e+00 0.0000e+00 1.0000e+00
</event>
<event>
 6      1 +1.4834189e-01 1.00090800e+04 7.81653100e-03 6.93817700e-02
  1000022 -1    0    0    0    0 +0.0000000000e+00 +0.0000000000e+00 +4.4721471353e+01 1.0000100000e+04 1.0000000000e+04 0.0000e+00 -1.0000e+00
  1000022 -1    0    0    0    0 -0.0000000000e+00 -0.0000000000e+00 -4.4721471353e+01 1.0000100000e+04 1.0000000000e+04 0.0000e+00 -1.0000e+00
      -24  1    1    2    0    0 -7.1078184711e+03 +2.9918985162e+03 -6.2945217954e+03 9.9548941458e+03 7.9829010000e+01 0.0000e+00 1.0000e+00
       24  1    1    2    0    0 +7.1134293277e+03 -3.0057718799e+03 +6.3329450492e+03 9.9873974118e+03 7.9829010000e+01 0.0000e+00 1.0000e+00
       22  1    1    2    0    0 +1.7194775932e+01 +1.5502359229e+00 -1.3120632384e+01 2.1684430933e+01 0.0000000000e+00 0.0000e+00 -1.0000e+00
       22  1    1    2    0    0 -2.2805632521e+01 +1.2323127776e+01 -2.5302621407e+01 3.6224011414e+01 0.0000000000e+00 0.0000e+00 -1.0000e+00
</event>
<event>
 6      1 +1.4834189e-01 1.00014600e+04 7.81653100e-03 6.93863700e-02
  1000022 -1    0    0    0    0 +0.0000000000e+00 +0.0000000000e+00 +4.4721471353e+01 1.0000100000e+04 1.0000000000e+04 0.0000e+00 1.0000e+00
  1000022 -1    0    0    0    0 -0.0000000000e+00 -0.0000000000e+00 -4.4721471353e+01 1.0000100000e+04 1.0000000000e+04 0.0000e+00 1.0000e+00
      -24  1    1    2    0    0 +2.6923383564e+03 -3.5606162844e+03 +8.3972483703e+03 9.5103536745e+03 7.9829010000e+01 0.0000e+00 -1.0000e+00
       24  1    1    2    0    0 -2.8260517415e+03 +3.7439102277e+03 -8.7810898383e+03 9.9557693654e+03 7.9829010000e+01 0.0000e+00 -1.0000e+00
       22  1    1    2    0    0 +1.5442757893e+02 -1.8565075460e+02 +4.2450328780e+02 4.8838214665e+02 0.0000000000e+00 0.0000e+00 -1.0000e+00
       22  1    1    2    0    0 -2.0714193841e+01 +2.3568113157e+00 -4.0661819819e+01 4.5694813459e+01 0.0000000000e+00 0.0000e+00 1.0000e+00
</event>
<event>
 6      1 +1.4834189e-01 1.00791400e+04 7.81653100e-03 6.93396900e-02
  1000022 -1    0    0    0    0 +0.0000000000e+00 +0.0000000000e+00 +4.4721471353e+01 1.0000100000e+04 1.0000000000e+04 0.0000e+00 -1.0000e+00
  1000022 -1    0    0    0    0 -0.0000000000e+00 -0.0000000000e+00 -4.4721471353e+01 1.0000100000e+04 1.0000000000e+04 0.0000e+00 -1.0000e+00
      -24  1    1    2    0    0 -1.0711489715e+02 +7.7422819870e+02 -6.3200139079e+02 1.0083160882e+03 7.9829010000e+01 0.0000e+00 1.0000e+00
       24  1    1    2    0    0 -1.6547903007e+03 -3.9974289727e+03 +8.8585797021e+03 9.8589338339e+03 7.9829010000e+01 0.0000e+00 1.0000e+00
       22  1    1    2    0    0 -1.5003294788e+01 -3.0225743104e+01 +5.2166115083e+01 6.2128881879e+01 0.0000000000e+00 0.0000e+00 -1.0000e+00
       22  1    1    2    0    0 +1.7769084926e+03 +3.2534265171e+03 -8.2787444264e+03 9.0708211961e+03 0.0000000000e+00 0.0000e+00 1.0000e+00
</event>
<event>
 6      1 +1.4834189e-01 1.00143300e+04 7.81653100e-03 6.93786100e-02
  1000022 -1    0    0    0    0 +0.0000000000e+00 +0.0000000000e+00 +4.4721471353e+01 1.0000100000e+04 1.0000000000e+04 0.0000e+00 1.0000e+00
  1000022 -1    0    0    0    0 -0.0000000000e+00 -0.0000000000e+00 -4.4721471353e+01 1.0000100000e+04 1.0000000000e+04 0.0000e+00 1.0000e+00
      -24  1    1    2    0    0 +9.0418208157e+02 +9.7567889810e+03 -1.9232149488e+03 9.9858702609e+03 7.9829010000e+01 0.0000e+00 1.0000e+00
       24  1    1    2    0    0 -9.3571525316e+02 -9.5366824521e+03 +1.8230085396e+03 9.7546710879e+03 7.9829010000e+01 0.0000e+00 1.0000e+00
       22  1    1    2    0    0 +4.3252436653e+01 -5.2417906943e+01 +4.9514705168e+01 8.4083983448e+01 0.0000000000e+00 0.0000e+00 1.0000e+00
       22  1    1    2    0    0 -1.1719265063e+01 -1.6768862194e+02 +5.0691703992e+01 1.7557466775e+02 0.0000000000e+00 0.0000e+00 1.0000e+00
</event>
<event>
 6      1 +1.4834189e-01 1.00051000e+04 7.81653100e-03 6.93841800e-02
  1000022 -1    0    0    0    0 +0.0000000000e+00 +0.0000000000e+00 +4.4721471353e+01 1.0000100000e+04 1.0000000000e+04 0.0000e+00 -1.0000e+00
  1000022 -1    0    0    0    0 -0.0000000000e+00 -0.0000000000e+00 -4.4721471353e+01 1.0000100000e+04 1.0000000000e+04 0.0000e+00 -1.0000e+00
      -24  1    1    2    0    0 +7.8335402190e+02 +9.2569459459e+03 -3.1527827400e+03 9.8107646718e+03 7.9829010000e+01 0.0000e+00 1.0000e+00
       24  1    1    2    0    0 -8.1394266804e+02 -9.4270699413e+03 +3.2192544247e+03 9.9951049053e+03 7.9829010000e+01 0.0000e+00 1.0000e+00
       22  1    1    2    0    0 +1.2444568225e+01 +1.6026337787e+02 -5.1395633214e+01 1.6876234378e+02 0.0000000000e+00 0.0000e+00 1.0000e+00
       22  1    1    2    0    0 +1.8144077916e+01 +9.8606175839e+00 -1.5076051505e+01 2.5568079152e+01 0.0000000000e+00 0.0000e+00 1.0000e+00
</event>
<event>
 6      1 +1.4834189e-01 1.00002100e+04 7.81653100e-03 6.93871300e-02
  1000022 -1    0    0    0    0 +0.0000000000e+00 +0.0000000000e+00 +4.4721471353e+01 1.0000100000e+04 1.0000000000e+04 0.0000e+00 -1.0000e+00
  1000022 -1    0    0    0    0 -0.0000000000e+00 -0.0000000000e+00 -4.4721471353e+01 1.0000100000e+04 1.0000000000e+04 0.0000e+00 -1.0000e+00
      -24  1    1    2    0    0 +8.0968499677e+03 -4.0812012507e+03 -3.6571695406e+03 9.7773434413e+03 7.9829010000e+01 0.0000e+00 1.0000e+00
       24  1    1    2    0    0 -8.2725307504e+03 +4.1587806800e+03 +3.7271175073e+03 9.9813826369e+03 7.9829010000e+01 0.0000e+00 1.0000e+00
       22  1    1    2    0    0 -1.6930883647e+01 +5.1400105702e+00 +5.7455799962e+00 1.8603392681e+01 0.0000000000e+00 0.0000e+00 1.0000e+00
       22  1    1    2    0    0 +1.9261166632e+02 -8.2719439853e+01 -7.5693546741e+01 2.2287052912e+02 0.0000000000e+00 0.0000e+00 -1.0000e+00
</event>
<event>
 6      1 +1.4834189e-01 1.07413000e+04 7.81653100e-03 6.89581600e-02
  1000022 -1    0    0    0    0 +0.0000000000e+00 +0.0000000000e+00 +4.4721471353e+01 1.0000100000e+04 1.0000000000e+04 0.0000e+00 1.0000e+00
  1000022 -1    0    0    0    0 -0.0000000000e+00 -0.0000000000e+00 -4.4721471353e+01 1.0000100000e+04 1.0000000000e+04 0.0000e+00 1.0000e+00
      -24  1    1    2    0    0 +8.1360110612e+01 -8.5564941154e+03 +3.5356323048e+03 9.2589027146e+03 7.9829010000e+01 0.0000e+00 1.0000e+00
       24  1    1    2    0    0 -3.1779711606e+02 +8.0292874071e+03 -3.6062740540e+03 8.8080665584e+03 7.9829010000e+01 0.0000e+00 1.0000e+00
       22  1    1    2    0    0 +9.2647093423e+01 +7.5634193604e+02 +8.3023214713e+02 1.1269081712e+03 0.0000000000e+00 0.0000e+00 -1.0000e+00
       22  1    1    2    0    0 +1.4378991202e+02 -2.2913522783e+02 -7.5959039789e+02 8.0632255580e+02 0.0000000000e+00 0.0000e+00 1.0000e+00
</event>
<event>
 6      1 +1.4834189e-01 1.00058800e+04 7.81653100e-03 6.93837000e-02
  1000022 -1    0    0    0    0 +0.0000000000e+00 +0.0000000000e+00 +4.4721471353e+01 1.0000100000e+04 1.0000000000e+04 0.0000e+00 1.0000e+00
  1000022 -1    0    0    0    0 -0.0000000000e+00 -0.0000000000e+00 -4.4721471353e+01 1.0000100000e+04 1.0000000000e+04 0.0000e+00 1.0000e+00
      -24  1    1    2    0    0 +1.6687007474e+03 -2.6137304336e+03 -9.4720528315e+03 9.9670610752e+03 7.9829010000e+01 0.0000e+00 1.0000e+00
       24  1    1    2    0    0 -1.3944540839e+03 +2.2374026861e+03 +8.4199390271e+03 8.8233904403e+03 7.9829010000e+01 0.0000e+00 1.0000e+00
       22  1    1    2    0    0 +7.1324472115e+00 +2.4993194066e+01 -2.8838366680e+01 3.8822454142e+01 0.0000000000e+00 0.0000e+00 -1.0000e+00
       22  1    1    2    0    0 -2.8137911072e+02 +3.5133455344e+02 +1.0809521711e+03 1.1709260304e+03 0.0000000000e+00 0.0000e+00 1.0000e+00
</event>
<event>
 6      1 +1.4834189e-01 1.00550700e+04 7.81653100e-03 6.93541100e-02
  1000022 -1    0    0    0    0 +0.0000000000e+00 +0.0000000000e+00 +4.4721471353e+01 1.0000100000e+04 1.0000000000e+04 0.0000e+00 -1.0000e+00
  1000022 -1    0    0    0    0 -0.0000000000e+00 -0.0000000000e+00 -4.4721471353e+01 1.0000100000e+04 1.0000000000e+04 0.0000e+00 -1.0000e+00
      -24  1    1    2    0    0 -4.9904141124e+03 +2.6846776108e+03 +8.1723565940e+03 9.9451250298e+03 7.9829010000e+01 0.0000e+00 -1.0000e+00
       24  1    1    2    0    0 +4.1178660690e+03 -2.3421231323e+03 -7.4242028639e+03 8.8072426197e+03 7.9829010000e+01 0.0000e+00 -1.0000e+00
       22  1    1    2    0    0 +6.1325198718e+02 -1.1355199845e+02 -3.3157130038e+02 7.0633673511e+02 0.0000000000e+00 0.0000e+00 -1.0000e+00
       22  1    1    2    0    0 +2.5929605626e+02 -2.2900248006e+02 -4.1658242979e+02 5.4149561538e+02 0.0000000000e+00 0.0000e+00 1.0000e+00
</event>
<event>
 6      1 +1.4834189e-01 1.00004900e+04 7.81653100e-03 6.93869600e-02
  1000022 -1    0    0    0    0 +0.0000000000e+00 +0.0000000000e+00 +4.4721471353e+01 1.0000100000e+04 1.0000000000e+04 0.0000e+00 -1.0000e+00
  1000022 -1    0    0    0    0 -0.0000000000e+00 -0.0000000000e+00 -4.4721471353e+01 1.0000100000e+04 1.0000000000e+04 0.0000e+00 -1.0000e+00
      -24  1    1    2    0    0 -5.6345367907e+03 -4.8208306438e+03 -6.6562129289e+03 9.9649363353e+03 7.9829010000e+01 0.0000e+00 1.0000e+00
       24  1    1    2    0    0 +5.6347060584e+03 +4.8250957313e+03 +6.6512822775e+03 9.9638039817e+03 7.9829010000e+01 0.0000e+00 1.0000e+00
       22  1    1    2    0    0 +1.7368982553e+01 +1.2685771583e+01 +2.9717645119e+01 3.6684448845e+01 0.0000000000e+00 0.0000e+00 1.0000e+00
       22  1    1    2    0    0 -1.7538250248e+01 -1.6950859132e+01 -2.4786993768e+01 3.4775234106e+01 0.0000000000e+00 0.0000e+00 -1.0000e+00
</event>
<event>
 6      1 +1.4834189e-01 1.00229900e+04 7.81653100e-03 6.93733900e-02
  1000022 -1    0    0    0    0 +0.0000000000e+00 +0.0000000000e+00 +4.4721471353e+01 1.0000100000e+04 1.0000000000e+04 0.0000e+00 -1.0000e+00
  1000022 -1    0    0    0    0 -0.0000000000e+00 -0.0000000000e+00 -4.4721471353e+01 1.0000100000e+04 1.0000000000e+04 0.0000e+00 -1.0000e+00
      -24  1    1    2    0    0 +6.6153153853e+02 -6.2215979411e+02 -4.4583530537e+02 1.0148145526e+03 7.9829010000e+01 0.0000e+00 -1.0000e+00
       24  1    1    2    0    0 -5.6482754705e+03 +7.2315295343e+03 +3.8132490771e+03 9.9370657837e+03 7.9829010000e+01 0.0000e+00 -1.0000e+00
       22  1    1    2    0    0 -5.6656777941e+00 +5.9451609020e+01 -6.1771207931e+01 8.5920171376e+01 0.0000000000e+00 0.0000e+00 -1.0000e+00
       22  1    1    2    0    0 +4.9924096097e+03 -6.6688213492e+03 -3.3056425638e+03 8.9623994922e+03 0.0000000000e+00 0.0000e+00 -1.0000e+00
</event>
<event>
 6      1 +1.4834189e-01 1.03518500e+04 7.81653100e-03 6.91790800e-02
  1000022 -1    0    0    0    0 +0.0000000000e+00 +0.0000000000e+00 +4.4721471353e+01 1.0000100000e+04 1.0000000000e+04 0.0000e+00 1.0000e+00
  1000022 -1    0    0    0    0 -0.0000000000e+00 -0.0000000000e+00 -4.4721471353e+01 1.0000100000e+04 1.0000000000e+04 0.0000e+00 1.0000e+00
      -24  1    1    2    0    0 -7.3361226334e+03 -4.7390304113e+03 +3.1191977467e+03 9.2743124697e+03 7.9829010000e+01 0.0000e+00 1.0000e+00
       24  1    1    2    0    0 +5.1324167593e+03 +5.0939231727e+03 -1.7867355098e+03 7.4490638024e+03 7.9829010000e+01 0.0000e+00 1.0000e+00
       22  1    1    2    0    0 -2.9762891079e+02 -1.8508817486e+02 +1.3063280458e+02 3.7403947739e+02 0.0000000000e+00 0.0000e+00 -1.0000e+00
       22  1    1    2    0    0 +2.5013347850e+03 -1.6980458651e+02 -1.4630950415e+03 2.9027842504e+03 0.0000000000e+00 0.0000e+00 1.0000e+00
</event>
<event>
 6      1 +1.4834189e-01 1.00005000e+04 7.81653100e-03 6.93869500e-02
  1000022 -1    0    0    0    0 +0.0000000000e+00 +0.0000000000e+00 +4.4721471353e+01 1.0000100000e+04 1.0000000000e+04 0.0000e+00 1.0000e+00
  1000022 -1    0    0    0    0 -0.0000000000e+00 -0.0000000000e+00 -4.4721471353e+01 1.0000100000e+04 1.0000000000e+04 0.0000e+00 1.0000e+00
      -24  1    1    2    0    0 +7.1044597399e+03 -5.7214881312e+03 -2.4934687755e+03 9.4568775945e+03 7.9829010000e+01 0.0000e+00 1.0000e+00
       24  1    1    2    0    0 -7.3534779201e+03 +5.9548386966e+03 +2.5781601454e+03 9.8074983472e+03 7.9829010000e+01 0.0000e+00 1.0000e+00
       22  1    1    2    0    0 -1.5235111929e+02 +1.0243625299e+02 +5.9548014786e+01 1.9300263091e+02 0.0000000000e+00 0.0000e+00 1.0000e+00
       22  1    1    2    0    0 +4.0136929947e+02 -3.3578681840e+02 -1.4423938468e+02 5.4282142742e+02 0.0000000000e+00 0.0000e+00 -1.0000e+00
</event>
<event>
 6      1 +1.4834189e-01 1.00134600e+04 7.81653100e-03 6.93791400e-02
  1000022 -1    0    0    0    0 +0.0000000000e+00 +0.0000000000e+00 +4.4721471353e+01 1.0000100000e+04 1.0000000000e+04 0.0000e+00 1.0000e+00
  1000022 -1    0    0    0    0 -0.0000000000e+00 -0.0000000000e+00 -4.4721471353e+01 1.0000100000e+04 1.0000000000e+04 0.0000e+00 1.0000e+00
      -24  1    1    2    0    0 -9.9402907329e+02 +7.0962215447e+03 +6.7517097605e+03 9.8456290490e+03 7.9829010000e+01 0.0000e+00 -1.0000e+00
       24  1    1    2    0    0 +9.2832789524e+01 -1.3237196944e+02 -1.1734778211e+02 2.1513585919e+02 7.9829010000e+01 0.0000e+00 0.0000e+00
       22  1    1    2    0    0 +8.9571823402e+02 -7.0806565749e+03 -6.7133512732e+03 9.7983209788e+03 0.0000000000e+00 0.0000e+00 -1.0000e+00
       22  1    1    2    0    0 +5.4780497418e+00 +1.1680699962e+02 +7.8989294801e+01 1.4111411298e+02 0.0000000000e+00 0.0000e+00 -1.0000e+00
</event>
<event>
 6      1 +1.4834189e-01 1.00004400e+04 7.81653100e-03 6.93869900e-02
  1000022 -1    0    0    0    0 +0.0000000000e+00 +0.0000000000e+00 +4.4721471353e+01 1.0000100000e+04 1.0000000000e+04 0.0000e+00 1.0000e+00
  1000022 -1    0    0    0    0 -0.0000000000e+00 -0.0000000000e+00 -4.4721471353e+01 1.0000100000e+04 1.0000000000e+04 0.0000e+00 1.0000e+00
      -24  1    1    2    0    0 -4.6815693092e+03 -7.2168823744e+03 +7.3698034156e+02 8.6342339034e+03 7.9829010000e+01 0.0000e+00 1.0000e+00
       24  1    1    2    0    0 +5.3423916904e+03 +8.2660629814e+03 -8.9609480513e+02 9.8832335172e+03 7.9829010000e+01 0.0000e+00 1.0000e+00
       22  1    1    2    0    0 -7.1460714164e+02 -1.1520905408e+03 +1.6891583301e+02 1.3662022323e+03 0.0000000000e+00 0.0000e+00 -1.0000e+00
       22  1    1    2    0    0 +5.3784760489e+01 +1.0290993381e+02 -9.8013694428e+00 1.1653034704e+02 0.0000000000e+00 0.0000e+00 -1.0000e+00
</event>
<event>
 6      1 +1.4834189e-01 1.02112400e+04 7.81653100e-03 6.92612600e-02
  1000022 -1    0    0    0    0 +0.0000000000e+00 +0.0000000000e+00 +4.4721471353e+01 1.0000100000e+04 1.0000000000e+04 0.0000e+00 1.0000e+00
  1000022 -1    0    0    0    0 -0.0000000000e+00 -0.0000000000e+00 -4.4721471353e+01 1.0000100000e+04 1.0000000000e+04 0.0000e+00 1.0000e+00
      -24  1    1    2    0    0 +1.3509187840e+01 -3.4663834405e+00 +6.0340753201e+01 1.0103559425e+02 7.9829010000e+01 0.0000e+00 0.0000e+00
       24  1    1    2    0    0 -2.5635852345e+03 +2.7046034714e+03 -7.5519442433e+03 8.4217031363e+03 7.9829010000e+01 0.0000e+00 1.0000e+00
       22  1    1    2    0    0 +8.0302672282e+02 +8.6535352269e+02 -1.3449010990e+03 1.7895383770e+03 0.0000000000e+00 0.0000e+00 -1.0000e+00
       22  1    1    2    0    0 +1.7470493238e+03 -3.5664906107e+03 +8.8365045891e+03 9.6879228924e+03 0.0000000000e+00 0.0000e+00 1.0000e+00
</event>
<event>
 6      1 +1.4834189e-01 1.00050800e+04 7.81653100e-03 6.93841900e-02
  1000022 -1    0    0    0    0 +0.0000000000e+00 +0.0000000000e+00 +4.4721471353e+01 1.0000100000e+04 1.0000000000e+04 0.0000e+00 -1.0000e+00
  1000022 -1    0    0    0    0 -0.0000000000e+00 -0.0000000000e+00 -4.4721471353e+01 1.0000100000e+04 1.0000000000e+04 0.0000e+00 -1.0000e+00
      -24  1    1    2    0    0 +3.3218393907e+02 -6.0077930491e+02 -5.3940618169e+02 8.7670613221e+02 7.9829010000e+01 0.0000e+00 -1.0000e+00
       24  1    1    2    0    0 -1.2119918603e+02 +3.1135992522e+02 +1.6932819906e+02 3.8298688694e+02 7.9829010000e+01 0.0000e+00 1.0000e+00
       22  1    1    2    0    0 -4.1302433151e+03 +6.7410039917e+03 +5.4849490844e+03 9.6220949442e+03 0.0000000000e+00 0.0000e+00 1.0000e+00
       22  1    1    2    0    0 +3.9192585621e+03 -6.4515846120e+03 -5.1148711017e+03 9.1184120366e+03 0.0000000000e+00 0.0000e+00 1.0000e+00
</event>
<event>
 6      1 +1.4834189e-01 1.00729900e+04 7.81653100e-03 6.93433700e-02
  1000022 -1    0    0    0    0 +0.0000000000e+00 +0.0000000000e+00 +4.4721471353e+01 1.0000100000e+04 1.0000000000e+04 0.0000e+00 -1.0000e+00
  1000022 -1    0    0    0    0 -0.0000000000e+00 -0.0000000000e+00 -4.4721471353e+01 1.0000100000e+04 1.0000000000e+04 0.0000e+00 -1.0000e+00
      -24  1    1    2    0    0 +6.9535840270e+03 -4.6243836958e+03 +1.9966836509e+03 8.5866392528e+03 7.9829010000e+01 0.0000e+00 -1.0000e+00
       24  1    1    2    0    0 -2.7453326937e+03 +2.7195610080e+03 -1.0287158269e+03 3.9996865625e+03 7.9829010000e+01 0.0000e+00 -1.0000e+00
       22  1    1    2    0    0 -5.6284851094e+03 +1.7760604756e+03 -5.4893751739e+02 5.9275262832e+03 0.0000000000e+00 0.0000e+00 -1.0000e+00
       22  1    1    2    0    0 +1.4202337762e+03 +1.2876221219e+02 -4.1903030657e+02 1.4863479014e+03 0.0000000000e+00 0.0000e+00 -1.0000e+00
</event>
<event>
 6      1 +1.4834189e-01 1.00176000e+04 7.81653100e-03 6.93766400e-02
  1000022 -1    0    0    0    0 +0.0000000000e+00 +0.0000000000e+00 +4.4721471353e+01 1.0000100000e+04 1.0000000000e+04 0.0000e+00 -1.0000e+00
  1000022 -1    0    0    0    0 -0.0000000000e+00 -0.0000000000e+00 -4.4721471353e+01 1.0000100000e+04 1.0000000000e+04 0.0000e+00 -1.0000e+00
      -24  1    1    2    0    0 +4.5691822915e+03 -5.4323674833e+03 -3.7628939771e+03 8.0345371391e+03 7.9829010000e+01 0.0000e+00 1.0000e+00
       24  1    1    2    0    0 -5.7557923860e+03 +6.6936904431e+03 +4.6595316124e+03 9.9825971198e+03 7.9829010000e+01 0.0000e+00 1.0000e+00
       22  1    1    2    0    0 +6.3216109351e+01 +1.6362235276e+01 -1.5528324612e+01 6.7120250967e+01 0.0000000000e+00 0.0000e+00 1.0000e+00
       22  1    1    2    0    0 +1.1233939852e+03 -1.2776851950e+03 -8.8110931072e+02 1.9159454901e+03 0.0000000000e+00 0.0000e+00 1.0000e+00
</event>
<event>
 6      1 +1.4834189e-01 1.00089300e+04 7.81653100e-03 6.93818700e-02
  1000022 -1    0    0    0    0 +0.0000000000e+00 +0.0000000000e+00 +4.4721471353e+01 1.0000100000e+04 1.0000000000e+04 0.0000e+00 1.0000e+00
  1000022 -1    0    0    0    0 -0.0000000000e+00 -0.0000000000e+00 -4.4721471353e+01 1.0000100000e+04 1.0000000000e+04 0.0000e+00 1.0000e+00
      -24  1    1    2    0    0 +4.2952046443e+02 -1.3962470418e+03 +1.0632226312e+02 1.4668574320e+03 7.9829010000e+01 0.0000e+00 0.0000e+00
       24  1    1    2    0    0 -3.4003835491e+03 +9.3849902885e+03 -4.2254425390e+02 9.9912745590e+03 7.9829010000e+01 0.0000e+00 -1.0000e+00
       22  1    1    2    0    0 +2.9825402864e+03 -7.9210088306e+03 +3.3587208541e+02 8.4705807069e+03 0.0000000000e+00 0.0000e+00 -1.0000e+00
       22  1    1    2    0    0 -1.1677201737e+01 -6.7734416055e+01 -1.9650094630e+01 7.1487302213e+01 0.0000000000e+00 0.0000e+00 1.0000e+00
</event>
<event>
 6      1 +1.4834189e-01 1.00103100e+04 7.81653100e-03 6.93810300e-02
  1000022 -1    0    0    0    0 +0.0000000000e+00 +0.0000000000e+00 +4.4721471353e+01 1.0000100000e+04 1.0000000000e+04 0.0000e+00 -1.0000e+00
  1000022 -1    0    0    0    0 -0.0000000000e+00 -0.0000000000e+00 -4.4721471353e+01 1.0000100000e+04 1.0000000000e+04 0.0000e+00 -1.0000e+00
      -24  1    1    2    0    0 -9.2364212348e+03 +6.8687821152e+02 -3.4612902556e+03 9.8878805519e+03 7.9829010000e+01 0.0000e+00 1.0000e+00
       24  1    1    2    0    0 +9.2307315512e+03 -6.8654801953e+02 +3.3813948252e+03 9.8548443310e+03 7.9829010000e+01 0.0000e+00 1.0000e+00
       22  1    1    2    0    0 -1.1863306214e+02 +1.0665398230e+01 +2.8330077711e+01 1.2243425769e+02 0.0000000000e+00 0.0000e+00 1.0000e+00
       22  1    1    2    0    0 +1.2432274576e+02 -1.0995590218e+01 +5.1565352701e+01 1.3504085944e+02 0.0000000000e+00 0.0000e+00 1.0000e+00
</event>
<event>
 6      1 +1.4834189e-01 1.00093100e+04 7.81653100e-03 6.93816400e-02
  1000022 -1    0    0    0    0 +0.0000000000e+00 +0.0000000000e+00 +4.4721471353e+01 1.0000100000e+04 1.0000000000e+04 0.0000e+00 1.0000e+00
  1000022 -1    0    0    0    0 -0.0000000000e+00 -0.0000000000e+00 -4.4721471353e+01 1.0000100000e+04 1.0000000000e+04 0.0000e+00 1.0000e+00
      -24  1    1    2    0    0 +5.8413938210e+03 +5.2987596923e+03 +4.3910189203e+03 9.0269682550e+03 7.9829010000e+01 0.0000e+00 1.0000e+00
       24  1    1    2    0    0 -5.8061175095e+03 -5.3075331582e+03 -3.9160992208e+03 8.7876683220e+03 7.9829010000e+01 0.0000e+00 1.0000e+00
       22  1    1    2    0    0 +8.1335674132e+02 +4.2035273428e+02 +3.0150078893e+02 9.6392340753e+02 0.0000000000e+00 0.0000e+00 -1.0000e+00
       22  1    1    2    0    0 -8.4863305281e+02 -4.1157926837e+02 -7.7642048843e+02 1.2216400154e+03 0.0000000000e+00 0.0000e+00 -1.0000e+00
</event>
<event>
 6      1 +1.4834189e-01 6.96421200e+03 7.81653100e-03 7.16439500e-02
  1000022 -1    0    0    0    0 +0.0000000000e+00 +0.0000000000e+00 +4.4721471353e+01 1.0000100000e+04 1.0000000000e+04 0.0000e+00 -1.0000e+00
  1000022 -1    0    0    0    0 -0.0000000000e+00 -0.0000000000e+00 -4.4721471353e+01 1.0000100000e+04 1.0000000000e+04 0.0000e+00 -1.0000e+00
      -24  1    1    2    0    0 -4.6221117700e+03 -1.4478709155e+03 +2.8678851003e+03 5.6295101938e+03 7.9829010000e+01 0.0000e+00 -1.0000e+00
       24  1    1    2    0    0 +4.4866724777e+03 +6.7450583145e+02 +2.4395059107e+03 5.1519656247e+03 7.9829010000e+01 0.0000e+00 -1.0000e+00
       22  1    1    2    0    0 -1.9530276822e+03 -5.1903426855e+02 +1.1394325605e+03 2.3199181579e+03 0.0000000000e+00 0.0000e+00 1.0000e+00
       22  1    1    2    0    0 +2.0884669745e+03 +1.2923993526e+03 -6.4468235715e+03 6.8988060237e+03 0.0000000000e+00 0.0000e+00 -1.0000e+00
</event>
<event>
 6      1 +1.4834189e-01 1.08908300e+04 7.81653100e-03 6.88758200e-02
  1000022 -1    0    0    0    0 +0.0000000000e+00 +0.0000000000e+00 +4.4721471353e+01 1.0000100000e+04 1.0000000000e+04 0.0000e+00 -1.0000e+00
  1000022 -1    0    0    0    0 -0.0000000000e+00 -0.0000000000e+00 -4.4721471353e+01 1.0000100000e+04 1.0000000000e+04 0.0000e+00 -1.0000e+00
      -24  1    1    2    0    0 +1.6627319341e+02 +3.6765191123e+03 +7.0411258374e+03 7.9453297784e+03 7.9829010000e+01 0.0000e+00 -1.0000e+00
       24  1    1    2    0    0 -2.2869177025e+03 -2.3367385802e+03 -8.5019900433e+03 9.1093659020e+03 7.9829010000e+01 0.0000e+00 -1.0000e+00
       22  1    1    2    0    0 -1.7911933764e-01 +2.5378027847e+01 +4.8588043867e+01 5.4816734562e+01 0.0000000000e+00 0.0000e+00 -1.0000e+00
       22  1    1    2    0    0 +2.1208236284e+03 -1.3651585600e+03 +1.4122761620e+03 2.8906875850e+03 0.0000000000e+00 0.0000e+00 1.0000e+00
</event>
<event>
 6      1 +1.4834189e-01 1.00414700e+04 7.81653100e-03 6.93622800e-02
  1000022 -1    0    0    0    0 +0.0000000000e+00 +0.0000000000e+00 +4.4721471353e+01 1.0000100000e+04 1.0000000000e+04 0.0000e+00 -1.0000e+00
  1000022 -1    0    0    0    0 -0.0000000000e+00 -0.0000000000e+00 -4.4721471353e+01 1.0000100000e+04 1.0000000000e+04 0.0000e+00 -1.0000e+00
      -24  1    1    2    0    0 -5.9660154584e+02 -6.3298652315e+01 +1.8298309644e+03 1.9273282421e+03 7.9829010000e+01 0.0000e+00 0.0000e+00
       24  1    1    2    0    0 +7.1222530437e+01 -2.1474063747e+02 -2.7027620513e+02 3.6139741022e+02 7.9829010000e+01 0.0000e+00 1.0000e+00
       22  1    1    2    0    0 -1.9983404509e+03 -9.6900339483e+01 +7.7782192595e+03 8.0314039297e+03 0.0000000000e+00 0.0000e+00 -1.0000e+00
       22  1    1    2    0    0 +2.5237194663e+03 +3.7493962927e+02 -9.3377740188e+03 9.6800704179e+03 0.0000000000e+00 0.0000e+00 -1.0000e+00
</event>
<event>
 6      1 +1.4834189e-01 1.00045000e+04 7.81653100e-03 6.93845400e-02
  1000022 -1    0    0    0    0 +0.0000000000e+00 +0.0000000000e+00 +4.4721471353e+01 1.0000100000e+04 1.0000000000e+04 0.0000e+00 -1.0000e+00
  1000022 -1    0    0    0    0 -0.0000000000e+00 -0.0000000000e+00 -4.4721471353e+01 1.0000100000e+04 1.0000000000e+04 0.0000e+00 -1.0000e+00
      -24  1    1    2    0    0 +3.0860060473e+03 +7.7001114675e+03 +5.5760669131e+03 9.9957013174e+03 7.9829010000e+01 0.0000e+00 1.0000e+00
       24  1    1    2    0    0 -3.0446393552e+03 -7.6621103224e+03 -5.5436210012e+03 9.9355860357e+03 7.9829010000e+01 0.0000e+00 1.0000e+00
       22  1    1    2    0    0 -3.1286205930e+01 -3.8788818875e+01 -3.1024666099e+01 5.8702036232e+01 0.0000000000e+00 0.0000e+00 -1.0000e+00
       22  1    1    2    0    0 -1.0080486174e+01 +7.8767382885e-01 -1.4212458734e+00 1.0210610726e+01 0.0000000000e+00 0.0000e+00 -1.0000e+00
</event>
<event>
 6      1 +1.4834189e-01 1.00055600e+04 7.81653100e-03 6.93839000e-02
  1000022 -1    0    0    0    0 +0.0000000000e+00 +0.0000000000e+00 +4.4721471353e+01 1.0000100000e+04 1.0000000000e+04 0.0000e+00 -1.0000e+00
  1000022 -1    0    0    0    0 -0.0000000000e+00 -0.0000000000e+00 -4.4721471353e+01 1.0000100000e+04 1.0000000000e+04 0.0000e+00 -1.0000e+00
      -24  1    1    2    0    0 -1.3146378653e+02 +1.1139205218e+03 -7.3100179074e+02 1.3412076443e+03 7.9829010000e+01 0.0000e+00 -1.0000e+00
       24  1    1    2    0    0 -4.0805409303e+01 -8.0742835655e+03 +5.7894145781e+03 9.9357643896e+03 7.9829010000e+01 0.0000e+00 1.0000e+00
       22  1    1    2    0    0 -6.8310927297e+00 -4.3599381240e+01 +3.8976443837e+01 5.8878969476e+01 0.0000000000e+00 0.0000e+00 -1.0000e+00
       22  1    1    2    0    0 +1.7910028856e+02 +7.0039624249e+03 -5.0973892312e+03 8.6643489967e+03 0.0000000000e+00 0.0000e+00 1.0000e+00
</event>
<event>
 6      1 +1.4834189e-01 1.00105900e+04 7.81653100e-03 6.93808600e-02
  1000022 -1    0    0    0    0 +0.0000000000e+00 +0.0000000000e+00 +4.4721471353e+01 1.0000100000e+04 1.0000000000e+04 0.0000e+00 1.0000e+00
  1000022 -1    0    0    0    0 -0.0000000000e+00 -0.0000000000e+00 -4.4721471353e+01 1.0000100000e+04 1.0000000000e+04 0.0000e+00 1.0000e+00
      -24  1    1    2    0    0 +6.0144820692e+03 +6.3126920030e+03 +4.8746108450e+03 9.9896085232e+03 7.9829010000e+01 0.0000e+00 1.0000e+00
       24  1    1    2    0    0 -4.8158610464e+02 -3.4119172058e+02 -3.4538471420e+02 6.8847675198e+02 7.9829010000e+01 0.0000e+00 -1.0000e+00
       22  1    1    2    0    0 -9.8079514724e+00 -1.1714299001e+01 -3.1140371095e+01 3.4686357911e+01 0.0000000000e+00 0.0000e+00 -1.0000e+00
       22  1    1    2    0    0 -5.5230880131e+03 -5.9597859834e+03 -4.4980857597e+03 9.2874283669e+03 0.0000000000e+00 0.0000e+00 1.0000e+00
</event>
<event>
 6      1 +1.4834189e-01 1.00033800e+04 7.81653100e-03 6.93852200e-02
  1000022 -1    0    0    0    0 +0.0000000000e+00 +0.0000000000e+00 +4.4721471353e+01 1.0000100000e+04 1.0000000000e+04 0.0000e+00 -1.0000e+00
  1000022 -1    0    0    0    0 -0.0000000000e+00 -0.0000000000e+00 -4.4721471353e+01 1.0000100000e+04 1.0000000000e+04 0.0000e+00 -1.0000e+00
      -24  1    1    2    0    0 -7.2949443291e+03 +6.3451336601e+03 +2.0444809386e+03 9.8824697778e+03 7.9829010000e+01 0.0000e+00 -1.0000e+00
       24  1    1    2    0    0 +7.3629754155e+03 -6.3776620749e+03 -2.0686782365e+03 9.9586034578e+03 7.9829010000e+01 0.0000e+00 -1.0000e+00
       22  1    1    2    0    0 +1.5695967509e+01 -4.1913298278e+01 +1.2921025904e+00 4.4774518397e+01 0.0000000000e+00 0.0000e+00 1.0000e+00
       22  1    1    2    0    0 -8.3727053964e+01 +7.4441713068e+01 +2.2905195337e+01 1.1435224608e+02 0.0000000000e+00 0.0000e+00 1.0000e+00
</event>
<event>
 6      1 +1.4834189e-01 1.00253600e+04 7.81653100e-03 6.93719600e-02
  1000022 -1    0    0    0    0 +0.0000000000e+00 +0.0000000000e+00 +4.4721471353e+01 1.0000100000e+04 1.0000000000e+04 0.0000e+00 -1.0000e+00
  1000022 -1    0    0    0    0 -0.0000000000e+00 -0.0000000000e+00 -4.4721471353e+01 1.0000100000e+04 1.0000000000e+04 0.0000e+00 -1.0000e+00
      -24  1    1    2    0    0 -6.2864219051e+02 +6.8273328192e+02 -6.4156649735e+02 1.1310596710e+03 7.9829010000e+01 0.0000e+00 0.0000e+00
       24  1    1    2    0    0 +5.6256632883e+03 -7.1415262361e+03 +3.1848178897e+03 9.6332197149e+03 7.9829010000e+01 0.0000e+00 -1.0000e+00
       22  1    1    2    0    0 +1.9698513903e+02 -2.5365622271e+02 +1.1643867401e+02 3.4161760658e+02 0.0000000000e+00 0.0000e+00 1.0000e+00
       22  1    1    2    0    0 -5.1940062368e+03 +6.7124491769e+03 -2.6596900664e+03 8.8943030075e+03 0.0000000000e+00 0.0000e+00 -1.0000e+00
</event>
<event>
 6      1 +1.4834189e-01 1.01913900e+04 7.81653100e-03 6.92729700e-02
  1000022 -1    0    0    0    0 +0.0000000000e+00 +0.0000000000e+00 +4.4721471353e+01 1.0000100000e+04 1.0000000000e+04 0.0000e+00 -1.0000e+00
  1000022 -1    0    0    0    0 -0.0000000000e+00 -0.0000000000e+00 -4.4721471353e+01 1.0000100000e+04 1.0000000000e+04 0.0000e+00 -1.0000e+00
      -24  1    1    2    0    0 -6.7536377562e+02 +1.0231144705e+03 -4.7072073919e+03 4.8648796029e+03 7.9829010000e+01 0.0000e+00 -1.0000e+00
       24  1    1    2    0    0 +1.3148016203e+03 -2.8645259453e+03 +9.2882778052e+03 9.8088067291e+03 7.9829010000e+01 0.0000e+00 -1.0000e+00
       22  1    1    2    0    0 -3.4138447559e+02 +1.0729036551e+03 -4.3163332204e+03 4.4607620518e+03 0.0000000000e+00 0.0000e+00 -1.0000e+00
       22  1    1    2    0    0 -2.9805336913e+02 +7.6850781963e+02 -2.6473719289e+02 8.6575161622e+02 0.0000000000e+00 0.0000e+00 -1.0000e+00
</event>
<event>
 6      1 +1.4834189e-01 1.01846700e+04 7.81653100e-03 6.92769400e-02
  1000022 -1    0    0    0    0 +0.0000000000e+00 +0.0000000000e+00 +4.4721471353e+01 1.0000100000e+04 1.0000000000e+04 0.0000e+00 1.0000e+00
  1000022 -1    0    0    0    0 -0.0000000000e+00 -0.0000000000e+00 -4.4721471353e+01 1.0000100000e+04 1.0000000000e+04 0.0000e+00 1.0000e+00
      -24  1    1    2    0    0 +9.2880462412e+03 +1.5215659842e+03 -2.7848295023e+03 9.8155292293e+03 7.9829010000e+01 0.0000e+00 1.0000e+00
       24  1    1    2    0    0 -8.2423185145e+01 -1.6498275979e+02 +4.2503251019e+01 2.0540713148e+02 7.9829010000e+01 0.0000e+00 1.0000e+00
       22  1    1    2    0    0 -3.4623422418e+03 -1.2421963996e+02 +2.1452987344e+03 4.0749909176e+03 0.0000000000e+00 0.0000e+00 1.0000e+00
       22  1    1    2    0    0 -5.7432808143e+03 -1.2323635844e+03 +5.9702751690e+02 5.9042727217e+03 0.0000000000e+00 0.0000e+00 1.0000e+00
</event>
<event>
 6      1 +1.4834189e-01 1.00309400e+04 7.81653100e-03 6.93686000e-02
  1000022 -1    0    0    0    0 +0.0000000000e+00 +0.0000000000e+00 +4.4721471353e+01 1.0000100000e+04 1.0000000000e+04 0.0000e+00 1.0000e+00
  1000022 -1    0    0    0    0 -0.0000000000e+00 -0.0000000000e+00 -4.4721471353e+01 1.0000100000e+04 1.0000000000e+04 0.0000e+00 1.0000e+00
      -24  1    1    2    0    0 +9.1214213988e+03 -3.9579493159e+03 -7.1693793433e+02 9.9692559299e+03 7.9829010000e+01 0.0000e+00 1.0000e+00
       24  1    1    2    0    0 -9.0146959855e+03 +3.9368314615e+03 +7.9803625096e+02 9.8694792262e+03 7.9829010000e+01 0.0000e+00 1.0000e+00
       22  1    1    2    0    0 -5.2574028722e+01 -5.1306897022e+00 -8.6171520273e+01 1.0107365324e+02 0.0000000000e+00 0.0000e+00 -1.0000e+00
       22  1    1    2    0    0 -5.4151384568e+01 +2.6248544125e+01 +5.0732036424e+00 6.0391190702e+01 0.0000000000e+00 0.0000e+00 -1.0000e+00
</event>
<event>
 6      1 +1.4834189e-01 1.00658400e+04 7.81653100e-03 6.93476500e-02
  1000022 -1    0    0    0    0 +0.0000000000e+00 +0.0000000000e+00 +4.4721471353e+01 1.0000100000e+04 1.0000000000e+04 0.0000e+00 1.0000e+00
  1000022 -1    0    0    0    0 -0.0000000000e+00 -0.0000000000e+00 -4.4721471353e+01 1.0000100000e+04 1.0000000000e+04 0.0000e+00 1.0000e+00
      -24  1    1    2    0    0 +5.0321178502e+03 -2.7169147693e+03 +1.7972239998e+03 5.9950164886e+03 7.9829010000e+01 0.0000e+00 1.0000e+00
       24  1    1    2    0    0 -6.1877211196e+03 +4.6997059514e+03 -4.9781848509e+02 7.7864834552e+03 7.9829010000e+01 0.0000e+00 1.0000e+00
       22  1    1    2    0    0 -1.6181450546e+03 +8.1320823504e+02 -1.3841035593e+03 2.2793515995e+03 0.0000000000e+00 0.0000e+00 1.0000e+00
       22  1    1    2    0    0 +2.7737483239e+03 -2.7959994171e+03 +8.4698044610e+01 3.9393484567e+03 0.0000000000e+00 0.0000e+00 1.0000e+00
</event>
<event>
 6      1 +1.4834189e-01 6.99094000e+03 7.81653100e-03 7.16192800e-02
  1000022 -1    0    0    0    0 +0.0000000000e+00 +0.0000000000e+00 +4.4721471353e+01 1.0000100000e+04 1.0000000000e+04 0.0000e+00 -1.0000e+00
  1000022 -1    0    0    0    0 -0.0000000000e+00 -0.0000000000e+00 -4.4721471353e+01 1.0000100000e+04 1.0000000000e+04 0.0000e+00 -1.0000e+00
      -24  1    1    2    0    0 -9.8917886774e+02 -2.7501299437e+03 +3.5573286772e+03 4.6046334846e+03 7.9829010000e+01 0.0000e+00 1.0000e+00
       24  1    1    2    0    0 -3.9745811581e+03 +5.7897007090e+03 -5.5405818860e+03 8.9455212251e+03 7.9829010000e+01 0.0000e+00 1.0000e+00
       22  1    1    2    0    0 +5.0436333343e+03 -2.6829828631e+03 +1.6277374459e+03 5.9402157745e+03 0.0000000000e+00 0.0000e+00 1.0000e+00
       22  1    1    2    0    0 -7.9873308493e+01 -3.5658790224e+02 +3.5551576293e+02 5.0982951574e+02 0.0000000000e+00 0.0000e+00 1.0000e+00
</event>
<event>
 6      1 +1.4834189e-01 1.00001000e+04 7.81653100e-03 6.93871900e-02
  1000022 -1    0    0    0    0 +0.0000000000e+00 +0.0000000000e+00 +4.4721471353e+01 1.0000100000e+04 1.0000000000e+04 0.0000e+00 -1.0000e+00
  1000022 -1    0    0    0    0 -0.0000000000e+00 -0.0000000000e+00 -4.4721471353e+01 1.0000100000e+04 1.0000000000e+04 0.0000e+00 -1.0000e+00
      -24  1    1    2    0    0 -7.5934282771e+03 -6.3833243243e+03 -1.1587972947e+03 9.9878008725e+03 7.9829010000e+01 0.0000e+00 1.0000e+00
       24  1    1    2    0    0 +7.4778841387e+03 +6.2747389229e+03 +1.1440053433e+03 9.8288463534e+03 7.9829010000e+01 0.0000e+00 1.0000e+00
       22  1    1    2    0    0 -8.7828234993e+00 -7.7008265862e+00 -3.8547238379e+00 1.2300390831e+01 0.0000000000e+00 0.0000e+00 1.0000e+00
       22  1    1    2    0    0 +1.2432696184e+02 +1.1628622801e+02 +1.8646675242e+01 1.7125238323e+02 0.0000000000e+00 0.0000e+00 1.0000e+00
</event>
<event>
 6      1 +1.4834189e-01 1.00498400e+04 7.81653100e-03 6.93572500e-02
  1000022 -1    0    0    0    0 +0.0000000000e+00 +0.0000000000e+00 +4.4721471353e+01 1.0000100000e+04 1.0000000000e+04 0.0000e+00 -1.0000e+00
  1000022 -1    0    0    0    0 -0.0000000000e+00 -0.0000000000e+00 -4.4721471353e+01 1.0000100000e+04 1.0000000000e+04 0.0000e+00 -1.0000e+00
      -24  1    1    2    0    0 -3.7821871455e+00 -3.9234680839e+03 +6.5175292325e+03 7.6077707693e+03 7.9829010000e+01 0.0000e+00 -1.0000e+00
       24  1    1    2    0    0 -3.6894784632e+02 +5.0070004257e+03 -8.5905245902e+03 9.9503598519e+03 7.9829010000e+01 0.0000e+00 -1.0000e+00
       22  1    1    2    0    0 -3.0243396146e+01 -7.7792912689e+02 +1.1336420205e+03 1.3752209350e+03 0.0000000000e+00 0.0000e+00 1.0000e+00
       22  1    1    2    0    0 +4.0297342961e+02 -3.0560321485e+02 +9.3935333721e+02 1.0668484438e+03 0.0000000000e+00 0.0000e+00 -1.0000e+00
</event>
<event>
 6      1 +1.4834189e-01 1.00541800e+04 7.81653100e-03 6.93546400e-02
  1000022 -1    0    0    0    0 +0.0000000000e+00 +0.0000000000e+00 +4.4721471353e+01 1.0000100000e+04 1.0000000000e+04 0.0000e+00 1.0000e+00
  1000022 -1    0    0    0    0 -0.0000000000e+00 -0.0000000000e+00 -4.4721471353e+01 1.0000100000e+04 1.0000000000e+04 0.0000e+00 1.0000e+00
      -24  1    1    2    0    0 -7.4452958322e+03 +6.1832447032e+03 +1.6964887828e+03 9.8259550146e+03 7.9829010000e+01 0.0000e+00 -1.0000e+00
       24  1    1    2    0    0 +5.1523673568e+03 -3.6960833707e+03 -5.5839036445e+02 6.3660108493e+03 7.9829010000e+01 0.0000e+00 -1.0000e+00
       22  1    1    2    0    0 +2.3809472557e+03 -2.5634566910e+03 -1.1672068976e+03 3.6881691912e+03 0.0000000000e+00 0.0000e+00 1.0000e+00
       22  1    1    2    0    0 -8.8018780329e+01 +7.6295358514e+01 +2.9108479297e+01 1.2006494488e+02 0.0000000000e+00 0.0000e+00 1.0000e+00
</event>
<event>
 6      1 +1.4834189e-01 1.05321300e+04 7.81653100e-03 6.90756200e-02
  1000022 -1    0    0    0    0 +0.0000000000e+00 +0.0000000000e+00 +4.4721471353e+01 1.0000100000e+04 1.0000000000e+04 0.0000e+00 -1.0000e+00
  1000022 -1    0    0    0    0 -0.0000000000e+00 -0.0000000000e+00 -4.4721471353e+01 1.0000100000e+04 1.0000000000e+04 0.0000e+00 -1.0000e+00
      -24  1    1    2    0    0 -3.4599893720e+03 +7.1025316503e+03 +5.0177041596e+03 9.3595518056e+03 7.9829010000e+01 0.0000e+00 1.0000e+00
       24  1    1    2    0    0 -3.9655884503e+02 -2.7124004442e+03 -2.7596884544e+01 2.7425370273e+03 7.9829010000e+01 0.0000e+00 1.0000e+00
       22  1    1    2    0    0 -3.7412066771e+01 +8.0434722177e+01 +6.2503713362e+01 1.0851783934e+02 0.0000000000e+00 0.0000e+00 -1.0000e+00
       22  1    1    2    0    0 +3.8939602838e+03 -4.4705659283e+03 -5.0526109884e+03 7.7895933277e+03 0.0000000000e+00 0.0000e+00 1.0000e+00
</event>
<event>
 6      1 +1.4834189e-01 1.00123300e+04 7.81653100e-03 6.93798100e-02
  1000022 -1    0    0    0    0 +0.0000000000e+00 +0.0000000000e+00 +4.4721471353e+01 1.0000100000e+04 1.0000000000e+04 0.0000e+00 1.0000e+00
  1000022 -1    0    0    0    0 -0.0000000000e+00 -0.0000000000e+00 -4.4721471353e+01 1.0000100000e+04 1.0000000000e+04 0.0000e+00 1.0000e+00
      -24  1    1    2    0    0 -5.9687223354e+03 -3.6217727766e+03 -5.5856376573e+03 8.9413983846e+03 7.9829010000e+01 0.0000e+00 1.0000e+00
       24  1    1    2    0    0 +5.0063005674e+03 +2.7618843585e+03 +4.8349334413e+03 7.4882577836e+03 7.9829010000e+01 0.0000e+00 1.0000e+00
       22  1    1    2    0    0 +1.6403966589e+03 +1.2825529225e+03 +1.4265743940e+03 2.5240756128e+03 0.0000000000e+00 0.0000e+00 -1.0000e+00
       22  1    1    2    0    0 -6.7797489090e+02 -4.2266450438e+02 -6.7587017800e+02 1.0464682190e+03 0.0000000000e+00 0.0000e+00 1.0000e+00
</event>
<event>
 6      1 +1.4834189e-01 9.71107500e+03 7.81653100e-03 6.95647500e-02
  1000022 -1    0    0    0    0 +0.0000000000e+00 +0.0000000000e+00 +4.4721471353e+01 1.0000100000e+04 1.0000000000e+04 0.0000e+00 -1.0000e+00
  1000022 -1    0    0    0    0 -0.0000000000e+00 -0.0000000000e+00 -4.4721471353e+01 1.0000100000e+04 1.0000000000e+04 0.0000e+00 -1.0000e+00
      -24  1    1    2    0    0 -2.2717713478e+02 -1.1176041849e+00 -1.3030207047e+02 2.7379189179e+02 7.9829010000e+01 0.0000e+00 1.0000e+00
       24  1    1    2    0    0 +3.4680415495e+03 +7.1488664516e+03 +5.6612882948e+03 9.7565445502e+03 7.9829010000e+01 0.0000e+00 1.0000e+00
       22  1    1    2    0    0 -3.0219690471e+03 -7.3490758677e+03 -5.5141745991e+03 9.6719871040e+03 0.0000000000e+00 0.0000e+00 1.0000e+00
       22  1    1    2    0    0 -2.1889536771e+02 +2.0132702029e+02 -1.6811625270e+01 2.9787645400e+02 0.0000000000e+00 0.0000e+00 1.0000e+00
</event>
<event>
 6      1 +1.4834189e-01 1.00004800e+04 7.81653100e-03 6.93869600e-02
  1000022 -1    0    0    0    0 +0.0000000000e+00 +0.0000000000e+00 +4.4721471353e+01 1.0000100000e+04 1.0000000000e+04 0.0000e+00 1.0000e+00
  1000022 -1    0    0    0    0 -0.0000000000e+00 -0.0000000000e+00 -4.4721471353e+01 1.0000100000e+04 1.0000000000e+04 0.0000e+00 1.0000e+00
      -24  1    1    2    0    0 -2.8603576266e+03 -6.7423342561e+03 -6.7107047103e+03 9.9338133339e+03 7.9829010000e+01 0.0000e+00 1.0000e+00
       24  1    1    2    0    0 +2.8717485943e+03 +6.7558809442e+03 +6.7207540756e+03 9.9530786864e+03 7.9829010000e+01 0.0000e+00 1.0000e+00
       22  1    1    2    0    0 +4.9456164007e+00 +3.2821914948e+01 +3.3842657199e+01 4.7403192600e+01 0.0000000000e+00 0.0000e+00 -1.0000e+00
       22  1    1    2    0    0 -1.6336584108e+01 -4.6368603070e+01 -4.3892022533e+01 6.5904787179e+01 0.0000000000e+00 0.0000e+00 -1.0000e+00
</event>
<event>
 6      1 +1.4834189e-01 1.00069100e+04 7.81653100e-03 6.93830800e-02
  1000022 -1    0    0    0    0 +0.0000000000e+00 +0.0000000000e+00 +4.4721471353e+01 1.0000100000e+04 1.0000000000e+04 0.0000e+00 1.0000e+00
  1000022 -1    0    0    0    0 -0.0000000000e+00 -0.0000000000e+00 -4.4721471353e+01 1.0000100000e+04 1.0000000000e+04 0.0000e+00 1.0000e+00
      -24  1    1    2    0    0 +8.8492602915e+03 -2.7111004263e+03 -3.7550175948e+03 9.9882932995e+03 7.9829010000e+01 0.0000e+00 1.0000e+00
       24  1    1    2    0    0 -8.3863184564e+03 +2.5907141097e+03 +3.5702862051e+03 9.4760462803e+03 7.9829010000e+01 0.0000e+00 1.0000e+00
       22  1    1    2    0    0 -3.7916864135e+00 -1.3515280022e+01 -1.2228059960e+01 1.8616259837e+01 0.0000000000e+00 0.0000e+00 1.0000e+00
       22  1    1    2    0    0 -4.5915014867e+02 +1.3390159660e+02 +1.9695944975e+02 5.1724416038e+02 0.0000000000e+00 0.0000e+00 1.0000e+00
</event>
<event>
 6      1 +1.4834189e-01 1.00351300e+04 7.81653100e-03 6.93660900e-02
  1000022 -1    0    0    0    0 +0.0000000000e+00 +0.0000000000e+00 +4.4721471353e+01 1.0000100000e+04 1.0000000000e+04 0.0000e+00 -1.0000e+00
  1000022 -1    0    0    0    0 -0.0000000000e+00 -0.0000000000e+00 -4.4721471353e+01 1.0000100000e+04 1.0000000000e+04 0.0000e+00 -1.0000e+00
      -24  1    1    2    0    0 +3.6492117950e+03 +2.7173707529e+03 +5.2488084472e+03 6.9467412014e+03 7.9829010000e+01 0.0000e+00 -1.0000e+00
       24  1    1    2    0    0 -1.2026779726e+03 -2.9217667036e+01 -1.2347334613e+03 1.7257541450e+03 7.9829010000e+01 0.0000e+00 1.0000e+00
       22  1    1    2    0    0 -4.6220152735e+03 -3.5656089495e+03 -5.9134652596e+03 8.3093720428e+03 0.0000000000e+00 0.0000e+00 -1.0000e+00
       22  1    1    2    0    0 +2.1754814511e+03 +8.7745586364e+02 +1.8993902738e+03 3.0183326107e+03 0.0000000000e+00 0.0000e+00 -1.0000e+00
</event>
<event>
 6      1 +1.4834189e-01 1.00050700e+04 7.81653100e-03 6.93842000e-02
  1000022 -1    0    0    0    0 +0.0000000000e+00 +0.0000000000e+00 +4.4721471353e+01 1.0000100000e+04 1.0000000000e+04 0.0000e+00 -1.0000e+00
  1000022 -1    0    0    0    0 -0.0000000000e+00 -0.0000000000e+00 -4.4721471353e+01 1.0000100000e+04 1.0000000000e+04 0.0000e+00 -1.0000e+00
      -24  1    1    2    0    0 +8.7454996224e+03 +4.5570687603e+03 -1.2220099066e+03 9.9373195689e+03 7.9829010000e+01 0.0000e+00 1.0000e+00
       24  1    1    2    0    0 -8.6438356680e+03 -4.5541511350e+03 +1.1825069696e+03 9.8417926731e+03 7.9829010000e+01 0.0000e+00 1.0000e+00
       22  1    1    2    0    0 -1.5363740398e+02 -2.6619935563e+01 +4.8423289173e+01 1.6327243431e+02 0.0000000000e+00 0.0000e+00 -1.0000e+00
       22  1    1    2    0    0 +5.1973449538e+01 +2.3702310311e+01 -8.9203521715e+00 5.7815323694e+01 0.0000000000e+00 0.0000e+00 -1.0000e+00
</event>
<event>
 6      1 +1.4834189e-01 1.01430100e+04 7.81653100e-03 6.93016200e-02
  1000022 -1    0    0    0    0 +0.0000000000e+00 +0.0000000000e+00 +4.4721471353e+01 1.0000100000e+04 1.0000000000e+04 0.0000e+00 1.0000e+00
  1000022 -1    0    0    0    0 -0.0000000000e+00 -0.0000000000e+00 -4.4721471353e+01 1.0000100000e+04 1.0000000000e+04 0.0000e+00 1.0000e+00
      -24  1    1    2    0    0 -4.1251040763e+03 +2.3289497679e+03 +2.5089367244e+02 4.7444505443e+03 7.9829010000e+01 0.0000e+00 1.0000e+00
       24  1    1    2    0    0 +8.9066501737e+03 -2.3424005882e+03 -6.6475451539e+02 9.2338252674e+03 7.9829010000e+01 0.0000e+00 1.0000e+00
       22  1    1    2    0    0 -5.3741275125e+03 +1.9750559819e+02 +4.7348408161e+02 5.3985592668e+03 0.0000000000e+00 0.0000e+00 1.0000e+00
       22  1    1    2    0    0 +5.9258141506e+02 -1.8405477789e+02 -5.9623238652e+01 6.2336492147e+02 0.0000000000e+00 0.0000e+00 -1.0000e+00
</event>
<event>
 6      1 +1.4834189e-01 1.00736600e+04 7.81653100e-03 6.93429700e-02
  1000022 -1    0    0    0    0 +0.0000000000e+00 +0.0000000000e+00 +4.4721471353e+01 1.0000100000e+04 1.0000000000e+04 0.0000e+00 1.0000e+00
  1000022 -1    0    0    0    0 -0.0000000000e+00 -0.0000000000e+00 -4.4721471353e+01 1.0000100000e+04 1.0000000000e+04 0.0000e+00 1.0000e+00
      -24  1    1    2    0    0 -9.9193536248e+03 +1.9422369765e+02 +3.1398758001e+02 9.9265432075e+03 7.9829010000e+01 0.0000e+00 1.0000e+00
       24  1    1    2    0    0 +2.0483843115e+03 +2.0985730313e+02 +5.1373946127e+02 2.1237276850e+03 7.9829010000e+01 0.0000e+00 -1.0000e+00
       22  1    1    2    0    0 +7.6573255765e+03 -4.3704334663e+02 -8.9903684895e+02 7.7222994714e+03 0.0000000000e+00 0.0000e+00 1.0000e+00
       22  1    1    2    0    0 +2.1364373684e+02 +3.2962345846e+01 +7.1309807673e+01 2.2762963605e+02 0.0000000000e+00 0.0000e+00 1.0000e+00
</event>
<event>
 6      1 +1.4834189e-01 1.17833000e+04 7.81653100e-03 6.84105100e-02
  1000022 -1    0    0    0    0 +0.0000000000e+00 +0.0000000000e+00 +4.4721471353e+01 1.0000100000e+04 1.0000000000e+04 0.0000e+00 -1.0000e+00
  1000022 -1    0    0    0    0 -0.0000000000e+00 -0.0000000000e+00 -4.4721471353e+01 1.0000100000e+04 1.0000000000e+04 0.0000e+00 -1.0000e+00
      -24  1    1    2    0    0 +3.9257453206e+03 +3.8644854160e+03 -4.7858290049e+03 7.2976883866e+03 7.9829010000e+01 0.0000e+00 1.0000e+00
       24  1    1    2    0    0 +5.4784334017e+00 -5.3931858767e+03 +6.1987567916e+03 8.2168998014e+03 7.9829010000e+01 0.0000e+00 1.0000e+00
       22  1    1    2    0    0 +1.3717653886e+01 +3.4902061698e+01 -2.4074448265e+01 4.4563516448e+01 0.0000000000e+00 0.0000e+00 -1.0000e+00
       22  1    1    2    0    0 -3.9449414079e+03 +1.4937983990e+03 -1.3888533384e+03 4.4410482956e+03 0.0000000000e+00 0.0000e+00 1.0000e+00
</event>
<event>
 6      1 +1.4834189e-01 1.00069700e+04 7.81653100e-03 6.93830500e-02
  1000022 -1    0    0    0    0 +0.0000000000e+00 +0.0000000000e+00 +4.4721471353e+01 1.0000100000e+04 1.0000000000e+04 0.0000e+00 -1.0000e+00
  1000022 -1    0    0    0    0 -0.0000000000e+00 -0.0000000000e+00 -4.4721471353e+01 1.0000100000e+04 1.0000000000e+04 0.0000e+00 -1.0000e+00
      -24  1    1    2    0    0 -1.3354614358e+02 +1.3722798637e+02 -1.3415652063e+02 2.4705613851e+02 7.9829010000e+01 0.0000e+00 1.0000e+00
       24  1    1    2    0    0 +5.9666375624e+03 -4.4178631852e+03 +6.5816577132e+03 9.9218380277e+03 7.9829010000e+01 0.0000e+00 1.0000e+00
       22  1    1    2    0    0 +5.3092177283e+01 -3.5979767481e+01 +3.1358131240e+01 7.1390863221e+01 0.0000000000e+00 0.0000e+00 -1.0000e+00
       22  1    1    2    0    0 -5.8861835961e+03 +4.3166149663e+03 -6.4788593238e+03 9.7599149705e+03 0.0000000000e+00 0.0000e+00 1.0000e+00
</event>
<event>
 6      1 +1.4834189e-01 1.01991200e+04 7.81653100e-03 6.92684100e-02
  1000022 -1    0    0    0    0 +0.0000000000e+00 +0.0000000000e+00 +4.4721471353e+01 1.0000100000e+04 1.0000000000e+04 0.0000e+00 1.0000e+00
  1000022 -1    0    0    0    0 -0.0000000000e+00 -0.0000000000e+00 -4.4721471353e+01 1.0000100000e+04 1.0000000000e+04 0.0000e+00 1.0000e+00
      -24  1    1    2    0    0 +6.3568026712e+03 -1.3302709904e+03 -5.5104619998e+03 8.5176361292e+03 7.9829010000e+01 0.0000e+00 1.0000e+00
       24  1    1    2    0    0 -6.8374170480e+03 +7.6039119978e+02 +6.9804190462e+03 9.8010759306e+03 7.9829010000e+01 0.0000e+00 1.0000e+00
       22  1    1    2    0    0 +3.8997780916e+02 +5.8955468319e+02 -1.3883956935e+03 1.5579794664e+03 0.0000000000e+00 0.0000e+00 1.0000e+00
       22  1    1    2    0    0 +9.0636567707e+01 -1.9674892611e+01 -8.1561352901e+01 1.2350847377e+02 0.0000000000e+00 0.0000e+00 1.0000e+00
</event>
<event>
 6      1 +1.4834189e-01 1.01891300e+04 7.81653100e-03 6.92743000e-02
  1000022 -1    0    0    0    0 +0.0000000000e+00 +0.0000000000e+00 +4.4721471353e+01 1.0000100000e+04 1.0000000000e+04 0.0000e+00 1.0000e+00
  1000022 -1    0    0    0    0 -0.0000000000e+00 -0.0000000000e+00 -4.4721471353e+01 1.0000100000e+04 1.0000000000e+04 0.0000e+00 1.0000e+00
      -24  1    1    2    0    0 -4.9704768952e+03 -6.3950456411e+03 -3.3535600623e+03 8.7666976154e+03 7.9829010000e+01 0.0000e+00 -1.0000e+00
       24  1    1    2    0    0 +5.9713291724e+03 +6.3986926924e+03 +4.2996442495e+03 9.7515821075e+03 7.9829010000e+01 0.0000e+00 -1.0000e+00
       22  1    1    2    0    0 +3.7033054007e+01 +3.8833091958e+01 +2.5672154873e+01 5.9485423894e+01 0.0000000000e+00 0.0000e+00 -1.0000e+00
       22  1    1    2    0    0 -1.0378853312e+03 -4.2480143338e+01 -9.7175634207e+02 1.4224348532e+03 0.0000000000e+00 0.0000e+00 -1.0000e+00
</event>
<event>
 6      1 +1.4834189e-01 1.00063000e+04 7.81653100e-03 6.93834500e-02
  1000022 -1    0    0    0    0 +0.0000000000e+00 +0.0000000000e+00 +4.4721471353e+01 1.0000100000e+04 1.0000000000e+04 0.0000e+00 -1.0000e+00
  1000022 -1    0    0    0    0 -0.0000000000e+00 -0.0000000000e+00 -4.4721471353e+01 1.0000100000e+04 1.0000000000e+04 0.0000e+00 -1.0000e+00
      -24  1    1    2    0    0 +8.3809167592e+03 -4.4523770551e+03 +3.0503351331e+03 9.9686681287e+03 7.9829010000e+01 0.0000e+00 1.0000e+00
       24  1    1    2    0    0 -8.4046698046e+03 +4.4506772462e+03 -3.0625721804e+03 9.9916326746e+03 7.9829010000e+01 0.0000e+00 1.0000e+00
       22  1    1    2    0    0 +4.1428853649e+00 +1.3915054052e+01 +2.1004966852e+00 1.4669843719e+01 0.0000000000e+00 0.0000e+00 1.0000e+00
       22  1    1    2    0    0 +1.9610160001e+01 -1.2215245162e+01 +1.0136550616e+01 2.5229352905e+01 0.0000000000e+00 0.0000e+00 1.0000e+00
</event>
<event>
 6      1 +1.4834189e-01 1.00314400e+04 7.81653100e-03 6.93683100e-02
  1000022 -1    0    0    0    0 +0.0000000000e+00 +0.0000000000e+00 +4.4721471353e+01 1.0000100000e+04 1.0000000000e+04 0.0000e+00 1.0000e+00
  1000022 -1    0    0    0    0 -0.0000000000e+00 -0.0000000000e+00 -4.4721471353e+01 1.0000100000e+04 1.0000000000e+04 0.0000e+00 1.0000e+00
      -24  1    1    2    0    0 -7.0019969818e+02 -3.8274876629e+03 -5.2771587318e+03 6.5570357921e+03 7.9829010000e+01 0.0000e+00 -1.0000e+00
       24  1    1    2    0    0 +4.7772291786e+02 +5.2668380973e+03 +8.2462662714e+03 9.7966873390e+03 7.9829010000e+01 0.0000e+00 -1.0000e+00
       22  1    1    2    0    0 +1.9735861980e+02 -1.5304462884e+03 -3.1129157579e+03 3.4744007803e+03 0.0000000000e+00 0.0000e+00 1.0000e+00
       22  1    1    2    0    0 +2.5118160511e+01 +9.1095854000e+01 +1.4380821836e+02 1.7207608861e+02 0.0000000000e+00 0.0000e+00 1.0000e+00
</event>
<event>
 6      1 +1.4834189e-01 1.00571000e+04 7.81653100e-03 6.93528900e-02
  1000022 -1    0    0    0    0 +0.0000000000e+00 +0.0000000000e+00 +4.4721471353e+01 1.0000100000e+04 1.0000000000e+04 0.0000e+00 -1.0000e+00
  1000022 -1    0    0    0    0 -0.0000000000e+00 -0.0000000000e+00 -4.4721471353e+01 1.0000100000e+04 1.0000000000e+04 0.0000e+00 -1.0000e+00
      -24  1    1    2    0    0 +1.3971618043e+02 +7.4023952401e+01 +9.6429544691e+02 9.8042773133e+02 7.9829010000e+01 0.0000e+00 1.0000e+00
       24  1    1    2    0    0 -2.7979401348e+03 -4.6846787732e+03 -6.8193554693e+03 8.7341093360e+03 7.9829010000e+01 0.0000e+00 -1.0000e+00
       22  1    1    2    0    0 +3.0510997858e+03 +5.0102369910e+03 +6.9263437197e+03 9.0766690990e+03 0.0000000000e+00 0.0000e+00 -1.0000e+00
       22  1    1    2    0    0 -3.9287583149e+02 -3.9958217012e+02 -1.0712836974e+03 1.2089938337e+03 0.0000000000e+00 0.0000e+00 1.0000e+00
</event>
<event>
 6      1 +1.4834189e-01 9.77792100e+03 7.81653100e-03 6.95231300e-02
  1000022 -1    0    0    0    0 +0.0000000000e+00 +0.0000000000e+00 +4.4721471353e+01 1.0000100000e+04 1.0000000000e+04 0.0000e+00 -1.0000e+00
  1000022 -1    0    0    0    0 -0.0000000000e+00 -0.0000000000e+00 -4.4721471353e+01 1.0000100000e+04 1.0000000000e+04 0.0000e+00 -1.0000e+00
      -24  1    1    2    0    0 -4.9134179611e+03 +7.1269021068e+03 +4.4991638129e+03 9.7561907211e+03 7.9829010000e+01 0.0000e+00 -1.0000e+00
       24  1    1    2    0    0 -2.3037056038e+02 -3.4817577154e+02 -1.1435941197e+02 4.4016781905e+02 7.9829010000e+01 0.0000e+00 -1.0000e+00
       22  1    1    2    0    0 -6.4694209158e+01 +8.2106836192e+01 +4.9411964342e+01 1.1562186414e+02 0.0000000000e+00 0.0000e+00 -1.0000e+00
       22  1    1    2    0    0 +5.2084827306e+03 -6.8608331714e+03 -4.4342163652e+03 9.6882195957e+03 0.0000000000e+00 0.0000e+00 -1.0000e+00
</event>
<event>
 6      1 +1.4834189e-01 1.00083800e+04 7.81653100e-03 6.93821900e-02
  1000022 -1    0    0    0    0 +0.0000000000e+00 +0.0000000000e+00 +4.4721471353e+01 1.0000100000e+04 1.0000000000e+04 0.0000e+00 -1.0000e+00
  1000022 -1    0    0    0    0 -0.0000000000e+00 -0.0000000000e+00 -4.4721471353e+01 1.0000100000e+04 1.0000000000e+04 0.0000e+00 -1.0000e+00
      -24  1    1    2    0    0 +3.1819282539e+01 +2.5789653154e+02 -9.5121612003e+01 2.8799979102e+02 7.9829010000e+01 0.0000e+00 1.0000e+00
       24  1    1    2    0    0 +7.2506285059e+01 -8.2846520144e+03 +5.0325769776e+03 9.6940146414e+03 7.9829010000e+01 0.0000e+00 -1.0000e+00
       22  1    1    2    0    0 +1.5996538565e+01 -2.3613757996e+02 +1.8074575269e+02 2.9780173443e+02 0.0000000000e+00 0.0000e+00 -1.0000e+00
       22  1    1    2    0    0 -1.2032210616e+02 +8.2628930628e+03 -5.1182011183e+03 9.7203838332e+03 0.0000000000e+00 0.0000e+00 -1.0000e+00
</event>
<event>
 6      1 +1.4834189e-01 1.02585600e+04 7.81653100e-03 6.92334600e-02
  1000022 -1    0    0    0    0 +0.0000000000e+00 +0.0000000000e+00 +4.4721471353e+01 1.0000100000e+04 1.0000000000e+04 0.0000e+00 1.0000e+00
  1000022 -1    0    0    0    0 -0.0000000000e+00 -0.0000000000e+00 -4.4721471353e+01 1.0000100000e+04 1.0000000000e+04 0.0000e+00 1.0000e+00
      -24  1    1    2    0    0 -3.1378052265e+03 -8.9249727766e+03 -2.0442472983e+03 9.6791673397e+03 7.9829010000e+01 0.0000e+00 -1.0000e+00
       24  1    1    2    0    0 +3.6941897903e+03 +8.7248290518e+03 +2.1094008421e+03 9.7069884503e+03 7.9829010000e+01 0.0000e+00 -1.0000e+00
       22  1    1    2    0    0 -5.4583566153e+02 +1.7435280926e+02 -8.5759776303e+01 5.7938778959e+02 0.0000000000e+00 0.0000e+00 1.0000e+00
       22  1    1    2    0    0 -1.0548902247e+01 +2.5790915472e+01 +2.0606232536e+01 3.4656420456e+01 0.0000000000e+00 0.0000e+00 -1.0000e+00
</event>
<event>
 6      1 +1.4834189e-01 1.00648600e+04 7.81653100e-03 6.93482400e-02
  1000022 -1    0    0    0    0 +0.0000000000e+00 +0.0000000000e+00 +4.4721471353e+01 1.0000100000e+04 1.0000000000e+04 0.0000e+00 -1.0000e+00
  1000022 -1    0    0    0    0 -0.0000000000e+00 -0.0000000000e+00 -4.4721471353e+01 1.0000100000e+04 1.0000000000e+04 0.0000e+00 -1.0000e+00
      -24  1    1    2    0    0 +2.2045879523e+03 +3.2056202666e+03 -1.2076656028e+03 4.0744371651e+03 7.9829010000e+01 0.0000e+00 1.0000e+00
       24  1    1    2    0    0 -6.0621402488e+03 -7.7028057457e+03 +1.1092776518e+03 9.8650712279e+03 7.9829010000e+01 0.0000e+00 1.0000e+00
       22  1    1    2    0    0 +3.9203095259e+03 +4.5285176921e+03 +9.4216274665e+01 5.9904236889e+03 0.0000000000e+00 0.0000e+00 1.0000e+00
       22  1    1    2    0    0 -6.2757229520e+01 -3.1332213033e+01 +4.1716762770e+00 7.0267918095e+01 0.0000000000e+00 0.0000e+00 1.0000e+00
</event>
<event>
 6      1 +1.4834189e-01 1.07526000e+04 7.81653100e-03 6.89518900e-02
  1000022 -1    0    0    0    0 +0.0000000000e+00 +0.0000000000e+00 +4.4721471353e+01 1.0000100000e+04 1.0000000000e+04 0.0000e+00 -1.0000e+00
  1000022 -1    0    0    0    0 -0.0000000000e+00 -0.0000000000e+00 -4.4721471353e+01 1.0000100000e+04 1.0000000000e+04 0.0000e+00 -1.0000e+00
      -24  1    1    2    0    0 -2.7678830274e+02 +2.8711216303e+03 +8.7858883006e+03 9.2476027749e+03 7.9829010000e+01 0.0000e+00 1.0000e+00
       24  1    1    2    0    0 -7.0116828821e+02 -2.4138375752e+03 -7.8931755434e+03 8.2841319182e+03 7.9829010000e+01 0.0000e+00 1.0000e+00
       22  1    1    2    0    0 +1.1735327413e+03 +4.4443433510e+02 -9.0253896615e+02 1.5457288114e+03 0.0000000000e+00 0.0000e+00 1.0000e+00
       22  1    1    2    0    0 -1.9557615034e+02 -9.0171839019e+02 +9.8262089961e+00 9.2273649553e+02 0.0000000000e+00 0.0000e+00 -1.0000e+00
</event>
<event>
 6      1 +1.4834189e-01 1.00001200e+04 7.81653100e-03 6.93871800e-02
  1000022 -1    0    0    0    0 +0.0000000000e+00 +0.0000000000e+00 +4.4721471353e+01 1.0000100000e+04 1.0000000000e+04 0.0000e+00 -1.0000e+00
  1000022 -1    0    0    0    0 -0.0000000000e+00 -0.0000000000e+00 -4.4721471353e+01 1.0000100000e+04 1.0000000000e+04 0.0000e+00 -1.0000e+00
      -24  1    1    2    0    0 +4.3465483432e+03 +8.3331763188e+03 -6.1503901770e+01 9.3991736584e+03 7.9829010000e+01 0.0000e+00 -1.0000e+00
       24  1    1    2    0    0 -4.5397866658e+03 -8.7103565139e+03 +5.9065226529e+01 9.8229239507e+03 7.9829010000e+01 0.0000e+00 -1.0000e+00
       22  1    1    2    0    0 +2.7104525513e+02 +5.3630473545e+02 -2.2931331243e+00 6.0091060738e+02 0.0000000000e+00 0.0000e+00 -1.0000e+00
       22  1    1    2    0    0 -7.7806932570e+01 -1.5912454043e+02 +4.7318083654e+00 1.7719178348e+02 0.0000000000e+00 0.0000e+00 -1.0000e+00
</event>
<event>
 6      1 +1.4834189e-01 1.06695500e+04 7.81653100e-03 6.89981500e-02
  1000022 -1    0    0    0    0 +0.0000000000e+00 +0.0000000000e+00 +4.4721471353e+01 1.0000100000e+04 1.0000000000e+04 0.0000e+00 1.0000e+00
  1000022 -1    0    0    0    0 -0.0000000000e+00 -0.0000000000e+00 -4.4721471353e+01 1.0000100000e+04 1.0000000000e+04 0.0000e+00 1.0000e+00
      -24  1    1    2    0    0 +2.8514575367e+02 -1.1063749927e+03 -4.8059948865e+03 4.9405802539e+03 7.9829010000e+01 0.0000e+00 1.0000e+00
       24  1    1    2    0    0 +2.7550190862e+03 -8.6522111733e+02 +7.0421873288e+03 7.6116695141e+03 7.9829010000e+01 0.0000e+00 1.0000e+00
       22  1    1    2    0    0 -3.6835385475e+03 +2.1605108219e+03 -3.8190030575e+03 5.7289656655e+03 0.0000000000e+00 0.0000e+00 1.0000e+00
       22  1    1    2    0    0 +6.4337370761e+02 -1.8891471195e+02 +1.5828106153e+03 1.7189845665e+03 0.0000000000e+00 0.0000e+00 1.0000e+00
</event>
<event>
 6      1 +1.4834189e-01 1.00213900e+04 7.81653100e-03 6.93743600e-02
  1000022 -1    0    0    0    0 +0.0000000000e+00 +0.0000000000e+00 +4.4721471353e+01 1.0000100000e+04 1.0000000000e+04 0.0000e+00 -1.0000e+00
  1000022 -1    0    0    0    0 -0.0000000000e+00 -0.0000000000e+00 -4.4721471353e+01 1.0000100000e+04 1.0000000000e+04 0.0000e+00 -1.0000e+00
      -24  1    1    2    0    0 -4.7617748143e+03 +8.1849125816e+03 +8.8418278284e+02 9.5108067595e+03 7.9829010000e+01 0.0000e+00 1.0000e+00
       24  1    1    2    0    0 +4.8278750789e+03 -8.6499827062e+03 -1.0347214097e+03 9.9603011833e+03 7.9829010000e+01 0.0000e+00 1.0000e+00
       22  1    1    2    0    0 +4.9689046247e+00 -1.7818106428e+01 +6.6445278675e-01 1.8509900793e+01 0.0000000000e+00 0.0000e+00 -1.0000e+00
       22  1    1    2    0    0 -7.1069169196e+01 +4.8288823100e+02 +1.4987417411e+02 5.1058215648e+02 0.0000000000e+00 0.0000e+00 1.0000e+00
</event>
<event>
 6      1 +1.4834189e-01 1.00093200e+04 7.81653100e-03 6.93816300e-02
  1000022 -1    0    0    0    0 +0.0000000000e+00 +0.0000000000e+00 +4.4721471353e+01 1.0000100000e+04 1.0000000000e+04 0.0000e+00 1.0000e+00
  1000022 -1    0    0    0    0 -0.0000000000e+00 -0.0000000000e+00 -4.4721471353e+01 1.0000100000e+04 1.0000000000e+04 0.0000e+00 1.0000e+00
      -24  1    1    2    0    0 -9.7025403425e+03 +1.3181577949e+03 +1.8134711795e+03 9.9585078933e+03 7.9829010000e+01 0.0000e+00 -1.0000e+00
       24  1    1    2    0    0 +9.7369181992e+03 -1.3081893591e+03 -1.8108038707e+03 9.9902111462e+03 7.9829010000e+01 0.0000e+00 -1.0000e+00
       22  1    1    2    0    0 -3.5192857116e+00 -1.5342901769e+01 -1.0835751530e+01 1.9110298737e+01 0.0000000000e+00 0.0000e+00 1.0000e+00
       22  1    1    2    0    0 -3.0858570980e+01 +5.3744659788e+00 +8.1684427332e+00 3.2370661782e+01 0.0000000000e+00 0.0000e+00 1.0000e+00
</event>
<event>
 6      1 +1.4834189e-01 1.00147800e+04 7.81653100e-03 6.93783400e-02
  1000022 -1    0    0    0    0 +0.0000000000e+00 +0.0000000000e+00 +4.4721471353e+01 1.0000100000e+04 1.0000000000e+04 0.0000e+00 -1.0000e+00
  1000022 -1    0    0    0    0 -0.0000000000e+00 -0.0000000000e+00 -4.4721471353e+01 1.0000100000e+04 1.0000000000e+04 0.0000e+00 -1.0000e+00
      -24  1    1    2    0    0 -1.3652585221e+03 -8.6479801183e+02 +5.5941683581e+03 5.8234782324e+03 7.9829010000e+01 0.0000e+00 1.0000e+00
       24  1    1    2    0    0 +2.2282020388e+03 +1.1924248906e+03 -9.6249342119e+03 9.9515070567e+03 7.9829010000e+01 0.0000e+00 1.0000e+00
       22  1    1    2    0    0 -3.9774507186e+01 -3.1058425011e+01 -3.8166374159e+01 6.3271710128e+01 0.0000000000e+00 0.0000e+00 -1.0000e+00
       22  1    1    2    0    0 -8.2316900947e+02 -2.9656845374e+02 +4.0689322280e+03 4.1619430008e+03 0.0000000000e+00 0.0000e+00 1.0000e+00
</event>
<event>
 6      1 +1.4834189e-01 1.01838600e+04 7.81653100e-03 6.92774200e-02
  1000022 -1    0    0    0    0 +0.0000000000e+00 +0.0000000000e+00 +4.4721471353e+01 1.0000100000e+04 1.0000000000e+04 0.0000e+00 1.0000e+00
  1000022 -1    0    0    0    0 -0.0000000000e+00 -0.0000000000e+00 -4.4721471353e+01 1.0000100000e+04 1.0000000000e+04 0.0000e+00 1.0000e+00
      -24  1    1    2    0    0 +5.6989801792e+03 -6.8790837833e+03 +4.0686527945e+03 9.8163372504e+03 7.9829010000e+01 0.0000e+00 1.0000e+00
       24  1    1    2    0    0 -1.4348419360e+03 +7.8989623247e+02 +1.2514188480e+02 1.6446095590e+03 7.9829010000e+01 0.0000e+00 1.0000e+00
       22  1    1    2    0    0 -1.0588597075e+01 +5.5680097107e+00 +2.3527338373e+00 1.2192476232e+01 0.0000000000e+00 0.0000e+00 1.0000e+00
       22  1    1    2    0    0 -4.2535496462e+03 +6.0836195411e+03 -4.1961474131e+03 8.5270607144e+03 0.0000000000e+00 0.0000e+00 1.0000e+00
</event>
<event>
 6      1 +1.4834189e-01 1.00050900e+04 7.81653100e-03 6.93841800e-02
  1000022 -1    0    0    0    0 +0.0000000000e+00 +0.0000000000e+00 +4.4721471353e+01 1.0000100000e+04 1.0000000000e+04 0.0000e+00 1.0000e+00
  1000022 -1    0    0    0    0 -0.0000000000e+00 -0.0000000000e+00 -4.4721471353e+01 1.0000100000e+04 1.0000000000e+04 0.0000e+00 1.0000e+00
      -24  1    1    2    0    0 -7.1148692166e+02 +8.1668768391e+03 -5.5165897256e+03 9.8814586887e+03 7.9829010000e+01 0.0000e+00 1.0000e+00
       24  1    1    2    0    0 +7.5713362130e+02 -8.1680235927e+03 +5.5355540121e+03 9.8963928592e+03 7.9829010000e+01 0.0000e+00 1.0000e+00
       22  1    1    2    0    0 -1.0536397267e+02 +4.5617434969e+01 +4.5851760980e+01 1.2363212000e+02 0.0000000000e+00 0.0000e+00 -1.0000e+00
       22  1    1    2    0    0 +5.9717273026e+01 -4.4470681415e+01 -6.4816047567e+01 9.8716332111e+01 0.0000000000e+00 0.0000e+00 1.0000e+00
</event>
<event>
 6      1 +1.4834189e-01 1.00489400e+04 7.81653100e-03 6.93577900e-02
  1000022 -1    0    0    0    0 +0.0000000000e+00 +0.0000000000e+00 +4.4721471353e+01 1.0000100000e+04 1.0000000000e+04 0.0000e+00 1.0000e+00
  1000022 -1    0    0    0    0 -0.0000000000e+00 -0.0000000000e+00 -4.4721471353e+01 1.0000100000e+04 1.0000000000e+04 0.0000e+00 1.0000e+00
      -24  1    1    2    0    0 +6.3348983709e+03 -7.4433649923e+03 +1.8672220304e+03 9.9512567327e+03 7.9829010000e+01 0.0000e+00 -1.0000e+00
       24  1    1    2    0    0 -3.7110743443e+03 +4.5705981589e+03 -1.2131976336e+03 6.0117103630e+03 7.9829010000e+01 0.0000e+00 -1.0000e+00
       22  1    1    2    0    0 -5.0132784654e+02 +1.4007139696e+02 -1.4077072563e+02 5.3922722776e+02 0.0000000000e+00 0.0000e+00 1.0000e+00
       22  1    1    2    0    0 -2.1224961801e+03 +2.7326954364e+03 -5.1325367123e+02 3.4980056766e+03 0.0000000000e+00 0.0000e+00 1.0000e+00
</event>
<event>
 6      1 +1.4834189e-01 1.00025000e+04 7.81653100e-03 6.93857400e-02
  1000022 -1    0    0    0    0 +0.0000000000e+00 +0.0000000000e+00 +4.4721471353e+01 1.0000100000e+04 1.0000000000e+04 0.0000e+00 -1.0000e+00
  1000022 -1    0    0    0    0 -0.0000000000e+00 -0.0000000000e+00 -4.4721471353e+01 1.0000100000e+04 1.0000000000e+04 0.0000e+00 -1.0000e+00
      -24  1    1    2    0    0 -6.1898261100e+03 -7.6360704851e+03 +1.7658997759e+03 9.9874067913e+03 7.9829010000e+01 0.0000e+00 1.0000e+00
       24  1    1    2    0    0 +6.1757184358e+03 +7.6362516665e+03 -1.7665090822e+03 9.9789160093e+03 7.9829010000e+01 0.0000e+00 1.0000e+00
       22  1    1    2    0    0 +2.3389555395e+00 -1.4650886734e+01 +2.7975444692e+00 1.5097862437e+01 0.0000000000e+00 0.0000e+00 1.0000e+00
       22  1    1    2    0    0 +1.1768718705e+01 +1.4469705267e+01 -2.1882381106e+00 1.8779336956e+01 0.0000000000e+00 0.0000e+00 -1.0000e+00
</event>
<event>
 6      1 +1.4834189e-01 1.00114800e+04 7.81653100e-03 6.93803300e-02
  1000022 -1    0    0    0    0 +0.0000000000e+00 +0.0000000000e+00 +4.4721471353e+01 1.0000100000e+04 1.0000000000e+04 0.0000e+00 -1.0000e+00
  1000022 -1    0    0    0    0 -0.0000000000e+00 -0.0000000000e+00 -4.4721471353e+01 1.0000100000e+04 1.0000000000e+04 0.0000e+00 -1.0000e+00
      -24  1    1    2    0    0 +3.6873341256e+03 -3.8306753603e+03 -8.0988492200e+03 9.6885622271e+03 7.9829010000e+01 0.0000e+00 -1.0000e+00
       24  1    1    2    0    0 -3.3588044246e+03 +3.7194181424e+03 +7.7829309177e+03 9.2572147442e+03 7.9829010000e+01 0.0000e+00 -1.0000e+00
       22  1    1    2    0    0 +1.1005358536e+02 -1.1470099286e+02 -2.5461080239e+02 3.0015790862e+02 0.0000000000e+00 0.0000e+00 -1.0000e+00
       22  1    1    2    0    0 -4.3858328632e+02 +2.2595821079e+02 +5.7052910466e+02 7.5426512006e+02 0.0000000000e+00 0.0000e+00 -1.0000e+00
</event>
<event>
 6      1 +1.4834189e-01 1.00015500e+04 7.81653100e-03 6.93863200e-02
  1000022 -1    0    0    0    0 +0.0000000000e+00 +0.0000000000e+00 +4.4721471353e+01 1.0000100000e+04 1.0000000000e+04 0.0000e+00 -1.0000e+00
  1000022 -1    0    0    0    0 -0.0000000000e+00 -0.0000000000e+00 -4.4721471353e+01 1.0000100000e+04 1.0000000000e+04 0.0000e+00 -1.0000e+00
      -24  1    1    2    0    0 +3.8125552040e+03 -8.9303001934e+03 -1.7385107478e+03 9.8648178401e+03 7.9829010000e+01 0.0000e+00 -1.0000e+00
       24  1    1    2    0    0 -3.8627011151e+03 +9.0115632843e+03 +1.7441683190e+03 9.9587764573e+03 7.9829010000e+01 0.0000e+00 -1.0000e+00
       22  1    1    2    0    0 +5.2693142586e+01 -1.2130789312e+02 -2.0471092051e+01 1.3383287271e+02 0.0000000000e+00 0.0000e+00 -1.0000e+00
       22  1    1    2    0    0 -2.5472314839e+00 +4.0044802235e+01 +1.4813520848e+01 4.2772829860e+01 0.0000000000e+00 0.0000e+00 1.0000e+00
</event>
<event>
 6      1 +1.4834189e-01 1.00043200e+04 7.81653100e-03 6.93846400e-02
  1000022 -1    0    0    0    0 +0.0000000000e+00 +0.0000000000e+00 +4.4721471353e+01 1.0000100000e+04 1.0000000000e+04 0.0000e+00 1.0000e+00
  1000022 -1    0    0    0    0 -0.0000000000e+00 -0.0000000000e+00 -4.4721471353e+01 1.0000100000e+04 1.0000000000e+04 0.0000e+00 1.0000e+00
      -24  1    1    2    0    0 +6.9396839211e+03 +4.0612769804e+02 +7.1824109671e+03 9.9958767801e+03 7.9829010000e+01 0.0000e+00 -1.0000e+00
       24  1    1    2    0    0 -5.7322325047e+03 -2.8226789413e+02 -5.9328222274e+03 8.2548723131e+03 7.9829010000e+01 0.0000e+00 -1.0000e+00
       22  1    1    2    0    0 -9.2788478721e+01 -3.6938818163e+00 -4.2784100183e+01 1.0224395226e+02 0.0000000000e+00 0.0000e+00 1.0000e+00
       22  1    1    2    0    0 -1.1146629376e+03 -1.2016592209e+02 -1.2068046395e+03 1.6472069546e+03 0.0000000000e+00 0.0000e+00 -1.0000e+00
</event>
<event>
 6      1 +1.4834189e-01 1.00147800e+04 7.81653100e-03 6.93783400e-02
  1000022 -1    0    0    0    0 +0.0000000000e+00 +0.0000000000e+00 +4.4721471353e+01 1.0000100000e+04 1.0000000000e+04 0.0000e+00 1.0000e+00
  1000022 -1    0    0    0    0 -0.0000000000e+00 -0.0000000000e+00 -4.4721471353e+01 1.0000100000e+04 1.0000000000e+04 0.0000e+00 1.0000e+00
      -24  1    1    2    0    0 -4.4377046731e+03 +2.9604175165e+03 -2.8359185355e+03 6.0420279086e+03 7.9829010000e+01 0.0000e+00 1.0000e+00
       24  1    1    2    0    0 +6.8521030269e+03 -5.0506933181e+03 +5.0438513867e+03 9.8948283647e+03 7.9829010000e+01 0.0000e+00 1.0000e+00
       22  1    1    2    0    0 +6.1963804693e+01 -4.5624143620e+01 +4.7803573031e+01 9.0588394221e+01 0.0000000000e+00 0.0000e+00 1.0000e+00
       22  1    1    2    0    0 -2.4763621584e+03 +2.1358999453e+03 -2.2557364243e+03 3.9727553325e+03 0.0000000000e+00 0.0000e+00 1.0000e+00
</event>
<event>
 6      1 +1.4834189e-01 9.53475900e+03 7.81653100e-03 6.96761400e-02
  1000022 -1    0    0    0    0 +0.0000000000e+00 +0.0000000000e+00 +4.4721471353e+01 1.0000100000e+04 1.0000000000e+04 0.0000e+00 1.0000e+00
  1000022 -1    0    0    0    0 -0.0000000000e+00 -0.0000000000e+00 -4.4721471353e+01 1.0000100000e+04 1.0000000000e+04 0.0000e+00 1.0000e+00
      -24  1    1    2    0    0 +8.1687864128e+02 +3.9580135174e+02 +1.3319971943e+00 9.1122108715e+02 7.9829010000e+01 0.0000e+00 -1.0000e+00
       24  1    1    2    0    0 +1.6944312893e+02 -9.4830015977e+03 -1.4149698746e+03 9.5898145286e+03 7.9829010000e+01 0.0000e+00 -1.0000e+00
       22  1    1    2    0    0 -9.6978530654e+02 +9.2127592979e+03 +1.4223605697e+03 9.3722210287e+03 0.0000000000e+00 0.0000e+00 -1.0000e+00
       22  1    1    2    0    0 -1.6536463661e+01 -1.2555905193e+02 -8.7226923680e+00 1.2694335554e+02 0.0000000000e+00 0.0000e+00 1.0000e+00
</event>
<event>
 6      1 +1.4834189e-01 1.00008300e+04 7.81653100e-03 6.93867500e-02
  1000022 -1    0    0    0    0 +0.0000000000e+00 +0.0000000000e+00 +4.4721471353e+01 1.0000100000e+04 1.0000000000e+04 0.0000e+00 -1.0000e+00
  1000022 -1    0    0    0    0 -0.0000000000e+00 -0.0000000000e+00 -4.4721471353e+01 1.0000100000e+04 1.0000000000e+04 0.0000e+00 -1.0000e+00
      -24  1    1    2    0    0 +1.8455472712e+03 -1.3990394251e+03 -9.7271618847e+03 9.9993703324e+03 7.9829010000e+01 0.0000e+00 1.0000e+00
       24  1    1    2    0    0 -1.7751884986e+03 +1.3203095849e+03 +9.3651434305e+03 9.6232424760e+03 7.9829010000e+01 0.0000e+00 1.0000e+00
       22  1    1    2    0    0 -4.8960263367e+01 +6.1296639359e+01 +2.4041877678e+02 2.5289439222e+02 0.0000000000e+00 0.0000e+00 -1.0000e+00
       22  1    1    2    0    0 -2.1398509160e+01 +1.7433200803e+01 +1.2159967738e+02 1.2469279941e+02 0.0000000000e+00 0.0000e+00 1.0000e+00
</event>
<event>
 6      1 +1.4834189e-01 1.00014900e+04 7.81653100e-03 6.93863600e-02
  1000022 -1    0    0    0    0 +0.0000000000e+00 +0.0000000000e+00 +4.4721471353e+01 1.0000100000e+04 1.0000000000e+04 0.0000e+00 -1.0000e+00
  1000022 -1    0    0    0    0 -0.0000000000e+00 -0.0000000000e+00 -4.4721471353e+01 1.0000100000e+04 1.0000000000e+04 0.0000e+00 -1.0000e+00
      -24  1    1    2    0    0 +3.2441001274e+03 +2.8515171709e+03 -7.8852802670e+03 8.9910707579e+03 7.9829010000e+01 0.0000e+00 1.0000e+00
       24  1    1    2    0    0 -9.3067186796e+02 -9.2120954409e+02 +2.2531728868e+03 2.6072855384e+03 7.9829010000e+01 0.0000e+00 -1.0000e+00
       22  1    1    2    0    0 +3.2609337287e+02 +2.9515068812e+02 -9.0658297473e+02 1.0076425490e+03 0.0000000000e+00 0.0000e+00 -1.0000e+00
       22  1    1    2    0    0 -2.6395216323e+03 -2.2254583150e+03 +6.5386903549e+03 7.3942011547e+03 0.0000000000e+00 0.0000e+00 1.0000e+00
</event>
<event>
 6      1 +1.4834189e-01 1.00326100e+04 7.81653100e-03 6.93676000e-02
  1000022 -1    0    0    0    0 +0.0000000000e+00 +0.0000000000e+00 +4.4721471353e+01 1.0000100000e+04 1.0000000000e+04 0.0000e+00 -1.0000e+00
  1000022 -1    0    0    0    0 -0.0000000000e+00 -0.0000000000e+00 -4.4721471353e+01 1.0000100000e+04 1.0000000000e+04 0.0000e+00 -1.0000e+00
      -24  1    1    2    0    0 +2.1909088330e+03 -1.0611531718e+02 +2.5099359791e+03 3.3342905190e+03 7.9829010000e+01 0.0000e+00 0.0000e+00
       24  1    1    2    0    0 -6.6295301328e+03 +7.2687962003e+01 -7.4424789604e+03 9.9675884279e+03 7.9829010000e+01 0.0000e+00 1.0000e+00
       22  1    1    2    0    0 -3.1601444801e+01 +4.8237599237e+01 +3.5237068201e+01 6.7580827674e+01 0.0000000000e+00 0.0000e+00 1.0000e+00
       22  1    1    2    0    0 +4.4702227446e+03 -1.4810244065e+01 +4.8973059131e+03 6.6307402254e+03 0.0000000000e+00 0.0000e+00 1.0000e+00
</event>
<event>
 6      1 +1.4834189e-01 1.04498800e+04 7.81653100e-03 6.91225700e-02
  1000022 -1    0    0    0    0 +0.0000000000e+00 +0.0000000000e+00 +4.4721471353e+01 1.0000100000e+04 1.0000000000e+04 0.0000e+00 -1.0000e+00
  1000022 -1    0    0    0    0 -0.0000000000e+00 -0.0000000000e+00 -4.4721471353e+01 1.0000100000e+04 1.0000000000e+04 0.0000e+00 -1.0000e+00
      -24  1    1    2    0    0 +1.3672756996e+02 -2.1876609162e+03 -1.7122150066e+03 2.7825541527e+03 7.9829010000e+01 0.0000e+00 1.0000e+00
       24  1    1    2    0    0 +2.5485418858e+03 +8.7751928654e+03 +2.2060281869e+02 9.1407939395e+03 7.9829010000e+01 0.0000e+00 1.0000e+00
       22  1    1    2    0    0 +1.0884070157e+02 +3.9479940072e+02 -9.8323739021e-01 4.0952879249e+02 0.0000000000e+00 0.0000e+00 1.0000e+00
       22  1    1    2    0    0 -2.7941101574e+03 -6.9823313499e+03 +1.4925954253e+03 7.6673231154e+03 0.0000000000e+00 0.0000e+00 1.0000e+00
</event>
<event>
 6      1 +1.4834189e-01 1.00596100e+04 7.81653100e-03 6.93513900e-02
  1000022 -1    0    0    0    0 +0.0000000000e+00 +0.0000000000e+00 +4.4721471353e+01 1.0000100000e+04 1.0000000000e+04 0.0000e+00 -1.0000e+00
  1000022 -1    0    0    0    0 -0.0000000000e+00 -0.0000000000e+00 -4.4721471353e+01 1.0000100000e+04 1.0000000000e+04 0.0000e+00 -1.0000e+00
      -24  1    1    2    0    0 -5.5661446834e+03 +2.1255036744e+02 +8.2329755675e+03 9.9405937278e+03 7.9829010000e+01 0.0000e+00 1.0000e+00
       24  1    1    2    0    0 +5.4857072092e+03 -3.8098763243e+02 -7.9144593539e+03 9.6375917478e+03 7.9829010000e+01 0.0000e+00 1.0000e+00
       22  1    1    2    0    0 +8.7865555960e+01 -1.2652807665e+01 -1.5128744719e+02 1.7540906802e+02 0.0000000000e+00 0.0000e+00 -1.0000e+00
       22  1    1    2    0    0 -7.4280817748e+00 +1.8109007265e+02 -1.6722876638e+02 2.4660545638e+02 0.0000000000e+00 0.0000e+00 -1.0000e+00
</event>
<event>
 6      1 +1.4834189e-01 1.00141900e+04 7.81653100e-03 6.93786900e-02
  1000022 -1    0    0    0    0 +0.0000000000e+00 +0.0000000000e+00 +4.4721471353e+01 1.0000100000e+04 1.0000000000e+04 0.0000e+00 1.0000e+00
  1000022 -1    0    0    0    0 -0.0000000000e+00 -0.0000000000e+00 -4.4721471353e+01 1.0000100000e+04 1.0000000000e+04 0.0000e+00 1.0000e+00
      -24  1    1    2    0    0 +7.6120076220e+03 +2.8164951652e+03 +5.8171098424e+03 9.9860124495e+03 7.9829010000e+01 0.0000e+00 -1.0000e+00
       24  1    1    2    0    0 -7.0903992130e+03 -2.7002350331e+03 -5.5410482169e+03 9.3954573197e+03 7.9829010000e+01 0.0000e+00 -1.0000e+00
       22  1    1    2    0    0 -3.4681005966e+02 -2.8583118802e+01 -1.1853638564e+02 3.6762084663e+02 0.0000000000e+00 0.0000e+00 -1.0000e+00
       22  1    1    2    0    0 -1.7479834938e+02 -8.7677013289e+01 -1.5752523985e+02 2.5110938412e+02 0.0000000000e+00 0.0000e+00 1.0000e+00
</event>
<event>
 6      1 +1.4834189e-01 1.00480300e+04 7.81653100e-03 6.93583300e-02
  1000022 -1    0    0    0    0 +0.0000000000e+00 +0.0000000000e+00 +4.4721471353e+01 1.0000100000e+04 1.0000000000e+04 0.0000e+00 -1.0000e+00
  1000022 -1    0    0    0    0 -0.0000000000e+00 -0.0000000000e+00 -4.4721471353e+01 1.0000100000e+04 1.0000000000e+04 0.0000e+00 -1.0000e+00
      -24  1    1    2    0    0 -4.5115331297e+03 +3.3728611305e+03 +8.1701689671e+03 9.9241199614e+03 7.9829010000e+01 0.0000e+00 1.0000e+00
       24  1    1    2    0    0 +1.3289280935e+02 -5.3702352612e+02 -1.1028117693e+03 1.2363742296e+03 7.9829010000e+01 0.0000e+00 1.0000e+00
       22  1    1    2    0    0 -8.7750202636e+00 +1.0435035200e+01 +2.4512376225e+01 2.8049020098e+01 0.0000000000e+00 0.0000e+00 -1.0000e+00
       22  1    1    2    0    0 +4.3874153406e+03 -2.8462726396e+03 -7.0918695740e+03 8.8116567889e+03 0.0000000000e+00 0.0000e+00 1.0000e+00
</event>
<event>
 6      1 +1.4834189e-01 1.01889200e+04 7.81653100e-03 6.92744300e-02
  1000022 -1    0    0    0    0 +0.0000000000e+00 +0.0000000000e+00 +4.4721471353e+01 1.0000100000e+04 1.0000000000e+04 0.0000e+00 -1.0000e+00
  1000022 -1    0    0    0    0 -0.0000000000e+00 -0.0000000000e+00 -4.4721471353e+01 1.0000100000e+04 1.0000000000e+04 0.0000e+00 -1.0000e+00
      -24  1    1    2    0    0 -1.9662075614e+03 -3.1277291508e+03 -8.4856665632e+03 9.2553536673e+03 7.9829010000e+01 0.0000e+00 -1.0000e+00
       24  1    1    2    0    0 +2.4010592600e+03 +2.9828627734e+03 +9.0328470196e+03 9.8112819675e+03 7.9829010000e+01 0.0000e+00 -1.0000e+00
       22  1    1    2    0    0 -3.8015275176e+02 -1.8423851078e+02 -2.9197253288e+02 5.1352497844e+02 0.0000000000e+00 0.0000e+00 -1.0000e+00
       22  1    1    2    0    0 -5.4698946825e+01 +3.2910488814e+02 -2.5520792354e+02 4.2003938675e+02 0.0000000000e+00 0.0000e+00 -1.0000e+00
</event>
<event>
 6      1 +1.4834189e-01 1.00025000e+04 7.81653100e-03 6.93857400e-02
  1000022 -1    0    0    0    0 +0.0000000000e+00 +0.0000000000e+00 +4.4721471353e+01 1.0000100000e+04 1.0000000000e+04 0.0000e+00 1.0000e+00
  1000022 -1    0    0    0    0 -0.0000000000e+00 -0.0000000000e+00 -4.4721471353e+01 1.0000100000e+04 1.0000000000e+04 0.0000e+00 1.0000e+00
      -24  1    1    2    0    0 -6.5586045097e+03 -6.7566668659e+03 +2.6952740016e+03 9.7948310280e+03 7.9829010000e+01 0.0000e+00 1.0000e+00
       24  1    1    2    0    0 +6.5766124666e+03 +6.7362907241e+03 -2.6267103409e+03 9.7742224316e+03 7.9829010000e+01 0.0000e+00 1.0000e+00
       22  1    1    2    0    0 -1.6266439138e+02 -1.2827022206e+02 +1.4625850609e+01 2.0767009799e+02 0.0000000000e+00 0.0000e+00 1.0000e+00
       22  1    1    2    0    0 +1.4465643447e+02 +1.4864636388e+02 -8.3189511319e+01 2.2347644243e+02 0.0000000000e+00 0.0000e+00 1.0000e+00
</event>
<event>
 6      1 +1.4834189e-01 1.01526100e+04 7.81653100e-03 6.92959200e-02
  1000022 -1    0    0    0    0 +0.0000000000e+00 +0.0000000000e+00 +4.4721471353e+01 1.0000100000e+04 1.0000000000e+04 0.0000e+00 1.0000e+00
  1000022 -1    0    0    0    0 -0.0000000000e+00 -0.0000000000e+00 -4.4721471353e+01 1.0000100000e+04 1.0000000000e+04 0.0000e+00 1.0000e+00
      -24  1    1    2    0    0 -3.6030131980e+03 +8.0778297176e+03 +3.1895890752e+03 9.4028127808e+03 7.9829010000e+01 0.0000e+00 1.0000e+00
       24  1    1    2    0    0 +3.5988767577e+03 -8.4998646580e+03 -2.6080688740e+03 9.5920805378e+03 7.9829010000e+01 0.0000e+00 1.0000e+00
       22  1    1    2    0    0 +1.0609412985e+02 -1.8026696938e+02 -1.4673949775e+02 2.5550856118e+02 0.0000000000e+00 0.0000e+00 -1.0000e+00
       22  1    1    2    0    0 -1.0195768954e+02 +6.0230190974e+02 -4.3478070348e+02 7.4979812020e+02 0.0000000000e+00 0.0000e+00 -1.0000e+00
</event>
<event>
 6      1 +1.4834189e-01 1.02897200e+04 7.81653100e-03 6.92152300e-02
  1000022 -1    0    0    0    0 +0.0000000000e+00 +0.0000000000e+00 +4.4721471353e+01 1.0000100000e+04 1.0000000000e+04 0.0000e+00 1.0000e+00
  1000022 -1    0    0    0    0 -0.0000000000e+00 -0.0000000000e+00 -4.4721471353e+01 1.0000100000e+04 1.0000000000e+04 0.0000e+00 1.0000e+00
      -24  1    1    2    0    0 +1.8856753845e+03 +8.4221522131e+02 -7.3052421775e+03 7.5919716858e+03 7.9829010000e+01 0.0000e+00 1.0000e+00
       24  1    1    2    0    0 -3.2143847507e+03 -9.9786615799e+02 +7.9088811029e+03 8.5956255831e+03 7.9829010000e+01 0.0000e+00 1.0000e+00
       22  1    1    2    0    0 +8.6163218598e+02 +2.2431111748e+01 +1.4584391917e+03 1.6940950547e+03 0.0000000000e+00 0.0000e+00 -1.0000e+00
       22  1    1    2    0    0 +4.6707718029e+02 +1.3321982493e+02 -2.0620781170e+03 2.1185076764e+03 0.0000000000e+00 0.0000e+00 1.0000e+00
</event>
<event>
 6      1 +1.4834189e-01 1.01144200e+04 7.81653100e-03 6.93186300e-02
  1000022 -1    0    0    0    0 +0.0000000000e+00 +0.0000000000e+00 +4.4721471353e+01 1.0000100000e+04 1.0000000000e+04 0.0000e+00 1.0000e+00
  1000022 -1    0    0    0    0 -0.0000000000e+00 -0.0000000000e+00 -4.4721471353e+01 1.0000100000e+04 1.0000000000e+04 0.0000e+00 1.0000e+00
      -24  1    1    2    0    0 +2.0527163066e+03 +2.6644288412e+03 -9.2956686665e+03 9.8857803897e+03 7.9829010000e+01 0.0000e+00 1.0000e+00
       24  1    1    2    0    0 -9.0405621071e+02 -2.1370250673e+03 +5.8594381017e+03 6.3026646198e+03 7.9829010000e+01 0.0000e+00 1.0000e+00
       22  1    1    2    0    0 -4.6457406490e+02 -7.3388027124e+02 +2.4059278443e+03 2.5579089324e+03 0.0000000000e+00 0.0000e+00 1.0000e+00
       22  1    1    2    0    0 -6.8408603101e+02 +2.0647649736e+02 +1.0303027205e+03 1.2538460582e+03 0.0000000000e+00 0.0000e+00 1.0000e+00
</event>
<event>
 6      1 +1.4834189e-01 1.00218600e+04 7.81653100e-03 6.93740700e-02
  1000022 -1    0    0    0    0 +0.0000000000e+00 +0.0000000000e+00 +4.4721471353e+01 1.0000100000e+04 1.0000000000e+04 0.0000e+00 -1.0000e+00
  1000022 -1    0    0    0    0 -0.0000000000e+00 -0.0000000000e+00 -4.4721471353e+01 1.0000100000e+04 1.0000000000e+04 0.0000e+00 -1.0000e+00
      -24  1    1    2    0    0 +2.5257361518e+02 -9.1838916973e+02 -5.0586477858e+02 1.0814360560e+03 7.9829010000e+01 0.0000e+00 1.0000e+00
       24  1    1    2    0    0 +3.9719409536e+00 +9.2718988136e+03 +3.5473770144e+03 9.9276573138e+03 7.9829010000e+01 0.0000e+00 1.0000e+00
       22  1    1    2    0    0 -5.2873831659e+00 +5.0389824775e+01 -1.3668877891e+00 5.0684901537e+01 0.0000000000e+00 0.0000e+00 -1.0000e+00
       22  1    1    2    0    0 -2.5125817297e+02 -8.4038994687e+03 -3.0401453481e+03 8.9404217287e+03 0.0000000000e+00 0.0000e+00 1.0000e+00
</event>
<event>
 6      1 +1.4834189e-01 1.00129100e+04 7.81653100e-03 6.93794700e-02
  1000022 -1    0    0    0    0 +0.0000000000e+00 +0.0000000000e+00 +4.4721471353e+01 1.0000100000e+04 1.0000000000e+04 0.0000e+00 -1.0000e+00
  1000022 -1    0    0    0    0 -0.0000000000e+00 -0.0000000000e+00 -4.4721471353e+01 1.0000100000e+04 1.0000000000e+04 0.0000e+00 -1.0000e+00
      -24  1    1    2    0    0 +1.1805128870e+02 +6.0398406126e-01 +2.4686831617e+01 1.4463257604e+02 7.9829010000e+01 0.0000e+00 0.0000e+00
       24  1    1    2    0    0 -2.3722776678e+03 +4.8001891328e+02 -8.9078593442e+02 2.5803084587e+03 7.9829010000e+01 0.0000e+00 -1.0000e+00
       22  1    1    2    0    0 +9.1279082522e+03 -1.8296732236e+03 +3.2735894769e+03 9.8682724541e+03 0.0000000000e+00 0.0000e+00 -1.0000e+00
       22  1    1    2    0    0 -6.8736818731e+03 +1.3490503262e+03 -2.4074903741e+03 7.4069865112e+03 0.0000000000e+00 0.0000e+00 -1.0000e+00
</event>
<event>
 6      1 +1.4834189e-01 1.00023200e+04 7.81653100e-03 6.93858500e-02
  1000022 -1    0    0    0    0 +0.0000000000e+00 +0.0000000000e+00 +4.4721471353e+01 1.0000100000e+04 1.0000000000e+04 0.0000e+00 -1.0000e+00
  1000022 -1    0    0    0    0 -0.0000000000e+00 -0.0000000000e+00 -4.4721471353e+01 1.0000100000e+04 1.0000000000e+04 0.0000e+00 -1.0000e+00
      -24  1    1    2    0    0 +9.4522246223e+03 +7.5335302500e+00 -3.2567776145e+03 9.9978787833e+03 7.9829010000e+01 0.0000e+00 -1.0000e+00
       24  1    1    2    0    0 -9.2066883825e+03 +3.7930916628e+00 +3.1889825311e+03 9.7436701306e+03 7.9829010000e+01 0.0000e+00 -1.0000e+00
       22  1    1    2    0    0 -2.1830365751e+02 -3.0180204037e+00 +7.1956386175e+01 2.2987674272e+02 0.0000000000e+00 0.0000e+00 1.0000e+00
       22  1    1    2    0    0 -2.7232582289e+01 -8.3086015091e+00 -4.1613027196e+00 2.8774343389e+01 0.0000000000e+00 0.0000e+00 -1.0000e+00
</event>
<event>
 6      1 +1.4834189e-01 1.00010600e+04 7.81653100e-03 6.93866100e-02
  1000022 -1    0    0    0    0 +0.0000000000e+00 +0.0000000000e+00 +4.4721471353e+01 1.0000100000e+04 1.0000000000e+04 0.0000e+00 1.0000e+00
  1000022 -1    0    0    0    0 -0.0000000000e+00 -0.0000000000e+00 -4.4721471353e+01 1.0000100000e+04 1.0000000000e+04 0.0000e+00 1.0000e+00
      -24  1    1    2    0    0 +1.5074127115e+03 -6.3982230262e+02 +2.8395579761e+03 3.2788912504e+03 7.9829010000e+01 0.0000e+00 -1.0000e+00
       24  1    1    2    0    0 -4.7905321469e+03 +1.9583004177e+03 -8.4729394961e+03 9.9288073378e+03 7.9829010000e+01 0.0000e+00 -1.0000e+00
       22  1    1    2    0    0 +3.3209414043e+03 -1.3256578129e+03 +5.6922384970e+03 6.7221722348e+03 0.0000000000e+00 0.0000e+00 -1.0000e+00
       22  1    1    2    0    0 -3.7821968866e+01 +7.1796978238e+00 -5.8856977003e+01 7.0329176959e+01 0.0000000000e+00 0.0000e+00 1.0000e+00
</event>
<event>
 6      1 +1.4834189e-01 1.02372400e+04 7.81653100e-03 6.92459600e-02
  1000022 -1    0    0    0    0 +0.0000000000e+00 +0.0000000000e+00 +4.4721471353e+01 1.0000100000e+04 1.0000000000e+04 0.0000e+00 -1.0000e+00
  1000022 -1    0    0    0    0 -0.0000000000e+00 -0.0000000000e+00 -4.4721471353e+01 1.0000100000e+04 1.0000000000e+04 0.0000e+00 -1.0000e+00
      -24  1    1    2    0    0 -1.6845073192e+00 -7.5998344903e+01 +1.3978572643e+01 1.1111551342e+02 7.9829010000e+01 0.0000e+00 1.0000e+00
       24  1    1    2    0    0 -4.7686884388e+03 +7.2399055896e+03 +4.4891309355e+03 9.7629550649e+03 7.9829010000e+01 0.0000e+00 1.0000e+00
       22  1    1    2    0    0 +3.1475233164e+02 -2.9004229250e+02 +3.9448312549e+02 5.8207430626e+02 0.0000000000e+00 0.0000e+00 1.0000e+00
       22  1    1    2    0    0 +4.4556206145e+03 -6.8738649522e+03 -4.8975926337e+03 9.5440551154e+03 0.0000000000e+00 0.0000e+00 1.0000e+00
</event>
<event>
 6      1 +1.4834189e-01 9.66510600e+03 7.81653100e-03 6.95935600e-02
  1000022 -1    0    0    0    0 +0.0000000000e+00 +0.0000000000e+00 +4.4721471353e+01 1.0000100000e+04 1.0000000000e+04 0.0000e+00 1.0000e+00
  1000022 -1    0    0    0    0 -0.0000000000e+00 -0.0000000000e+00 -4.4721471353e+01 1.0000100000e+04 1.0000000000e+04 0.0000e+00 1.0000e+00
      -24  1    1    2    0    0 -2.4402995326e+02 -2.8180563225e+02 -5.7514905516e+02 6.9002473792e+02 7.9829010000e+01 0.0000e+00 -1.0000e+00
       24  1    1    2    0    0 +1.1806362738e+03 +7.4775817368e+03 -5.8336066840e+03 9.5574824225e+03 7.9829010000e+01 0.0000e+00 -1.0000e+00
       22  1    1    2    0    0 +1.7756103998e+01 +4.3802716712e+01 +2.4921164642e+01 5.3432402788e+01 0.0000000000e+00 0.0000e+00 1.0000e+00
       22  1    1    2    0    0 -9.5436242456e+02 -7.2395788213e+03 +6.3838345745e+03 9.6992604368e+03 0.0000000000e+00 0.0000e+00 -1.0000e+00
</event>
<event>
 6      1 +1.4834189e-01 1.02740300e+04 7.81653100e-03 6.92244000e-02
  1000022 -1    0    0    0    0 +0.0000000000e+00 +0.0000000000e+00 +4.4721471353e+01 1.0000100000e+04 1.0000000000e+04 0.0000e+00 -1.0000e+00
  1000022 -1    0    0    0    0 -0.0000000000e+00 -0.0000000000e+00 -4.4721471353e+01 1.0000100000e+04 1.0000000000e+04 0.0000e+00 -1.0000e+00
      -24  1    1    2    0    0 +7.1048939937e+03 -4.2807706486e+00 +6.5269595621e+03 9.6481661876e+03 7.9829010000e+01 0.0000e+00 -1.0000e+00
       24  1    1    2    0    0 -5.6931590617e+02 -5.2064236555e+02 -2.2228196362e+03 2.3542491117e+03 7.9829010000e+01 0.0000e+00 -1.0000e+00
       22  1    1    2    0    0 -6.5928669658e+03 +5.2282022572e+02 -4.3570332900e+03 7.9197837664e+03 0.0000000000e+00 0.0000e+00 -1.0000e+00
       22  1    1    2    0    0 +5.7288878202e+01 +2.1029104883e+00 +5.2893364034e+01 7.8000934334e+01 0.0000000000e+00 0.0000e+00 -1.0000e+00
</event>
<event>
 6      1 +1.4834189e-01 1.00013400e+04 7.81653100e-03 6.93864400e-02
  1000022 -1    0    0    0    0 +0.0000000000e+00 +0.0000000000e+00 +4.4721471353e+01 1.0000100000e+04 1.0000000000e+04 0.0000e+00 -1.0000e+00
  1000022 -1    0    0    0    0 -0.0000000000e+00 -0.0000000000e+00 -4.4721471353e+01 1.0000100000e+04 1.0000000000e+04 0.0000e+00 -1.0000e+00
      -24  1    1    2    0    0 +6.5994724788e+02 +2.7424556845e+03 -8.1053909526e+03 8.5825595668e+03 7.9829010000e+01 0.0000e+00 -1.0000e+00
       24  1    1    2    0    0 -7.0410396027e+02 -3.0337326689e+03 +9.1893808296e+03 9.7031123355e+03 7.9829010000e+01 0.0000e+00 -1.0000e+00
       22  1    1    2    0    0 +6.4022178319e+01 +3.7894328383e+02 -1.3657422567e+03 1.4187842554e+03 0.0000000000e+00 0.0000e+00 1.0000e+00
       22  1    1    2    0    0 -1.9865465927e+01 -8.7666299416e+01 +2.8175237974e+02 2.9574384233e+02 0.0000000000e+00 0.0000e+00 -1.0000e+00
</event>
<event>
 6      1 +1.4834189e-01 1.00615800e+04 7.81653100e-03 6.93502100e-02
  1000022 -1    0    0    0    0 +0.0000000000e+00 +0.0000000000e+00 +4.4721471353e+01 1.0000100000e+04 1.0000000000e+04 0.0000e+00 -1.0000e+00
  1000022 -1    0    0    0    0 -0.0000000000e+00 -0.0000000000e+00 -4.4721471353e+01 1.0000100000e+04 1.0000000000e+04 0.0000e+00 -1.0000e+00
      -24  1    1    2    0    0 -7.1718382704e+03 -4.8928276683e-01 -6.7046746081e+03 9.8180598230e+03 7.9829010000e+01 0.0000e+00 1.0000e+00
       24  1    1    2    0    0 +7.2589579969e+03 +2.0831005542e+02 +6.7848381731e+03 9.9386249544e+03 7.9829010000e+01 0.0000e+00 1.0000e+00
       22  1    1    2    0    0 -4.4167988508e+00 -3.6638162696e+01 +7.2070594277e-01 3.6910465926e+01 0.0000000000e+00 0.0000e+00 -1.0000e+00
       22  1    1    2    0    0 -8.2702927580e+01 -1.7118260996e+02 -8.0884270891e+01 2.0660475662e+02 0.0000000000e+00 0.0000e+00 1.0000e+00
</event>
<event>
 6      1 +1.4834189e-01 1.00194600e+04 7.81653100e-03 6.93755200e-02
  1000022 -1    0    0    0    0 +0.0000000000e+00 +0.0000000000e+00 +4.4721471353e+01 1.0000100000e+04 1.0000000000e+04 0.0000e+00 1.0000e+00
  1000022 -1    0    0    0    0 -0.0000000000e+00 -0.0000000000e+00 -4.4721471353e+01 1.0000100000e+04 1.0000000000e+04 0.0000e+00 1.0000e+00
      -24  1    1    2    0    0 -2.1171053784e+03 +9.4141644966e+03 +2.4076130612e+03 9.9454311961e+03 7.9829010000e+01 0.0000e+00 1.0000e+00
       24  1    1    2    0    0 +1.4478542156e+02 -8.7352812658e+02 +1.8309414349e+01 8.8922556852e+02 7.9829010000e+01 0.0000e+00 1.0000e+00
       22  1    1    2    0    0 -7.0165281688e+00 +3.3227173085e+01 +9.6843755137e+00 3.5313790902e+01 0.0000000000e+00 0.0000e+00 1.0000e+00
       22  1    1    2    0    0 +1.9793364850e+03 -8.5738635431e+03 -2.4356068511e+03 9.1302294445e+03 0.0000000000e+00 0.0000e+00 1.0000e+00
</event>
<event>
 6      1 +1.4834189e-01 1.00001200e+04 7.81653100e-03 6.93871800e-02
  1000022 -1    0    0    0    0 +0.0000000000e+00 +0.0000000000e+00 +4.4721471353e+01 1.0000100000e+04 1.0000000000e+04 0.0000e+00 -1.0000e+00
  1000022 -1    0    0    0    0 -0.0000000000e+00 -0.0000000000e+00 -4.4721471353e+01 1.0000100000e+04 1.0000000000e+04 0.0000e+00 -1.0000e+00
      -24  1    1    2    0    0 +2.4302901859e+03 -2.7281085038e+03 +8.9034543401e+03 9.6242796226e+03 7.9829010000e+01 0.0000e+00 1.0000e+00
       24  1    1    2    0    0 -2.5018276807e+03 +2.8115983041e+03 -9.1693487730e+03 9.9119905347e+03 7.9829010000e+01 0.0000e+00 1.0000e+00
       22  1    1    2    0    0 -2.4013712002e+01 +2.8180738098e+01 -7.9974907384e+01 8.8129439888e+01 0.0000000000e+00 0.0000e+00 -1.0000e+00
       22  1    1    2    0    0 +9.5551206763e+01 -1.1167053837e+02 +3.4586934029e+02 3.7580040288e+02 0.0000000000e+00 0.0000e+00 -1.0000e+00
</event>
<event>
 6      1 +1.4834189e-01 1.00004100e+04 7.81653100e-03 6.93870100e-02
  1000022 -1    0    0    0    0 +0.0000000000e+00 +0.0000000000e+00 +4.4721471353e+01 1.0000100000e+04 1.0000000000e+04 0.0000e+00 -1.0000e+00
  1000022 -1    0    0    0    0 -0.0000000000e+00 -0.0000000000e+00 -4.4721471353e+01 1.0000100000e+04 1.0000000000e+04 0.0000e+00 -1.0000e+00
      -24  1    1    2    0    0 -2.4999046906e+03 -2.4222756425e+03 -9.2018374753e+03 9.8385531631e+03 7.9829010000e+01 0.0000e+00 -1.0000e+00
       24  1    1    2    0    0 +2.5076916551e+03 +2.4149772159e+03 +9.2525379840e+03 9.8861754084e+03 7.9829010000e+01 0.0000e+00 -1.0000e+00
       22  1    1    2    0    0 -3.8158741855e+01 -2.5106426294e+01 -1.5527629938e+02 1.6185534088e+02 0.0000000000e+00 0.0000e+00 1.0000e+00
       22  1    1    2    0    0 +3.0371777386e+01 +3.2404852879e+01 +1.0457579073e+02 1.1361608759e+02 0.0000000000e+00 0.0000e+00 -1.0000e+00
</event>
<event>
 6      1 +1.4834189e-01 1.00147700e+04 7.81653100e-03 6.93783400e-02
  1000022 -1    0    0    0    0 +0.0000000000e+00 +0.0000000000e+00 +4.4721471353e+01 1.0000100000e+04 1.0000000000e+04 0.0000e+00 -1.0000e+00
  1000022 -1    0    0    0    0 -0.0000000000e+00 -0.0000000000e+00 -4.4721471353e+01 1.0000100000e+04 1.0000000000e+04 0.0000e+00 -1.0000e+00
      -24  1    1    2    0    0 -1.6302021978e+03 +6.8556013962e+03 +6.2062102158e+03 9.3904338357e+03 7.9829010000e+01 0.0000e+00 1.0000e+00
       24  1    1    2    0    0 +1.8846375625e+03 -7.2586529128e+03 -6.5926075301e+03 9.9854267594e+03 7.9829010000e+01 0.0000e+00 1.0000e+00
       22  1    1    2    0    0 -3.0399927691e+01 +1.4366370215e+02 +1.3264481055e+02 1.9788395762e+02 0.0000000000e+00 0.0000e+00 -1.0000e+00
       22  1    1    2    0    0 -2.2403543699e+02 +2.5938781450e+02 +2.5375250373e+02 4.2645544724e+02 0.0000000000e+00 0.0000e+00 -1.0000e+00
</event>
<event>
 6      1 +1.4834189e-01 1.00161500e+04 7.81653100e-03 6.93775100e-02
  1000022 -1    0    0    0    0 +0.0000000000e+00 +0.0000000000e+00 +4.4721471353e+01 1.0000100000e+04 1.0000000000e+04 0.0000e+00 -1.0000e+00
  1000022 -1    0    0    0    0 -0.0000000000e+00 -0.0000000000e+00 -4.4721471353e+01 1.0000100000e+04 1.0000000000e+04 0.0000e+00 -1.0000e+00
      -24  1    1    2    0    0 +1.6495859516e+02 -1.3640461489e+02 +4.0425847146e+02 4.6434377315e+02 7.9829010000e+01 0.0000e+00 1.0000e+00
       24  1    1    2    0    0 -5.4712982127e+03 +3.6235929877e+03 -7.2625506099e+03 9.7885925600e+03 7.9829010000e+01 0.0000e+00 -1.0000e+00
       22  1    1    2    0    0 +4.1828531608e-01 +1.7418148483e+02 -1.4644132820e+02 2.2756191954e+02 0.0000000000e+00 0.0000e+00 -1.0000e+00
       22  1    1    2    0    0 +5.3059213323e+03 -3.6613698577e+03 +7.0047334667e+03 9.5197017473e+03 0.0000000000e+00 0.0000e+00 -1.0000e+00
</event>
<event>
 6      1 +1.4834189e-01 1.01946800e+04 7.81653100e-03 6.92710300e-02
  1000022 -1    0    0    0    0 +0.0000000000e+00 +0.0000000000e+00 +4.4721471353e+01 1.0000100000e+04 1.0000000000e+04 0.0000e+00 -1.0000e+00
  1000022 -1    0    0    0    0 -0.0000000000e+00 -0.0000000000e+00 -4.4721471353e+01 1.0000100000e+04 1.0000000000e+04 0.0000e+00 -1.0000e+00
      -24  1    1    2    0    0 -6.4215956338e+03 +1.7817449823e+02 -7.0164884889e+03 9.5134704510e+03 7.9829010000e+01 0.0000e+00 1.0000e+00
       24  1    1    2    0    0 +1.4071233779e+03 -1.7198538234e+02 +1.1526877400e+02 1.4245121037e+03 7.9829010000e+01 0.0000e+00 1.0000e+00
       22  1    1    2    0    0 +5.2625054031e+03 +9.7706857737e+01 +7.0151474136e+03 8.7701655048e+03 0.0000000000e+00 0.0000e+00 1.0000e+00
       22  1    1    2    0    0 -2.4803314717e+02 -1.0389597363e+02 -1.1392769861e+02 2.9205194049e+02 0.0000000000e+00 0.0000e+00 -1.0000e+00
</event>
<event>
 6      1 +1.4834189e-01 1.00022900e+04 7.81653100e-03 6.93858700e-02
  1000022 -1    0    0    0    0 +0.0000000000e+00 +0.0000000000e+00 +4.4721471353e+01 1.0000100000e+04 1.0000000000e+04 0.0000e+00 -1.0000e+00
  1000022 -1    0    0    0    0 -0.0000000000e+00 -0.0000000000e+00 -4.4721471353e+01 1.0000100000e+04 1.0000000000e+04 0.0000e+00 -1.0000e+00
      -24  1    1    2    0    0 +7.0151733154e+03 +1.4220964651e+03 -6.8939457492e+03 9.9382028388e+03 7.9829010000e+01 0.0000e+00 -1.0000e+00
       24  1    1    2    0    0 -5.1588921235e+03 -1.0180090309e+03 +4.6995460271e+03 7.0528445227e+03 7.9829010000e+01 0.0000e+00 -1.0000e+00
       22  1    1    2    0    0 -1.9147195385e+03 -4.0752629163e+02 +2.2061325397e+03 2.9494489946e+03 0.0000000000e+00 0.0000e+00 -1.0000e+00
       22  1    1    2    0    0 +5.8438346556e+01 +3.4388574518e+00 -1.1732817573e+01 5.9703643917e+01 0.0000000000e+00 0.0000e+00 -1.0000e+00
</event>
<event>
 6      1 +1.4834189e-01 1.00003100e+04 7.81653100e-03 6.93870700e-02
  1000022 -1    0    0    0    0 +0.0000000000e+00 +0.0000000000e+00 +4.4721471353e+01 1.0000100000e+04 1.0000000000e+04 0.0000e+00 -1.0000e+00
  1000022 -1    0    0    0    0 -0.0000000000e+00 -0.0000000000e+00 -4.4721471353e+01 1.0000100000e+04 1.0000000000e+04 0.0000e+00 -1.0000e+00
      -24  1    1    2    0    0 +9.1889705338e+03 -2.0151270791e+03 +1.4537220765e+03 9.5193275583e+03 7.9829010000e+01 0.0000e+00 1.0000e+00
       24  1    1    2    0    0 -9.6335809602e+03 +2.1000829404e+03 -1.5403608553e+03 9.9797452226e+03 7.9829010000e+01 0.0000e+00 1.0000e+00
       22  1    1    2    0    0 -1.9089135206e+01 +4.4006943671e+00 -4.6963754207e+00 2.0144903472e+01 0.0000000000e+00 0.0000e+00 -1.0000e+00
       22  1    1    2    0    0 +4.6369956162e+02 -8.9356555642e+01 +9.1335154247e+01 4.8098231556e+02 0.0000000000e+00 0.0000e+00 -1.0000e+00
</event>
<event>
 6      1 +1.4834189e-01 1.00003600e+04 7.81653100e-03 6.93870400e-02
  1000022 -1    0    0    0    0 +0.0000000000e+00 +0.0000000000e+00 +4.4721471353e+01 1.0000100000e+04 1.0000000000e+04 0.0000e+00 -1.0000e+00
  1000022 -1    0    0    0    0 -0.0000000000e+00 -0.0000000000e+00 -4.4721471353e+01 1.0000100000e+04 1.0000000000e+04 0.0000e+00 -1.0000e+00
      -24  1    1    2    0    0 +1.3177806247e+03 +9.4904021722e+03 -2.7662826722e+03 9.9731124358e+03 7.9829010000e+01 0.0000e+00 1.0000e+00
       24  1    1    2    0    0 -1.3243680452e+03 -9.4942648177e+03 +2.7701749041e+03 9.9787402420e+03 7.9829010000e+01 0.0000e+00 1.0000e+00
       22  1    1    2    0    0 +4.4926483169e+00 +2.4762847389e+01 -9.0041201723e+00 2.6729322472e+01 0.0000000000e+00 0.0000e+00 -1.0000e+00
       22  1    1    2    0    0 +2.0947720966e+00 -2.0900201889e+01 +5.1118883250e+00 2.1617999708e+01 0.0000000000e+00 0.0000e+00 -1.0000e+00
</event>
<event>
 6      1 +1.4834189e-01 1.00718800e+04 7.81653100e-03 6.93440300e-02
  1000022 -1    0    0    0    0 +0.0000000000e+00 +0.0000000000e+00 +4.4721471353e+01 1.0000100000e+04 1.0000000000e+04 0.0000e+00 -1.0000e+00
  1000022 -1    0    0    0    0 -0.0000000000e+00 -0.0000000000e+00 -4.4721471353e+01 1.0000100000e+04 1.0000000000e+04 0.0000e+00 -1.0000e+00
      -24  1    1    2    0    0 +4.0441483729e+02 -2.7704294749e+02 +9.3881795768e+02 1.0620997994e+03 7.9829010000e+01 0.0000e+00 1.0000e+00
       24  1    1    2    0    0 +9.5129503138e+02 +2.1299044524e+03 -9.3620054167e+03 9.6485736410e+03 7.9829010000e+01 0.0000e+00 1.0000e+00
       22  1    1    2    0    0 -1.3838770971e+03 -1.9163869108e+03 +8.6941647175e+03 9.0097810599e+03 0.0000000000e+00 0.0000e+00 1.0000e+00
       22  1    1    2    0    0 +2.8167228432e+01 +6.3525405959e+01 -2.7097725856e+02 2.7974549972e+02 0.0000000000e+00 0.0000e+00 -1.0000e+00
</event>
<event>
 6      1 +1.4834189e-01 1.00587300e+04 7.81653100e-03 6.93519100e-02
  1000022 -1    0    0    0    0 +0.0000000000e+00 +0.0000000000e+00 +4.4721471353e+01 1.0000100000e+04 1.0000000000e+04 0.0000e+00 1.0000e+00
  1000022 -1    0    0    0    0 -0.0000000000e+00 -0.0000000000e+00 -4.4721471353e+01 1.0000100000e+04 1.0000000000e+04 0.0000e+00 1.0000e+00
      -24  1    1    2    0    0 -7.9445596177e+03 +4.5949745236e+03 -3.6684830574e+03 9.8840254454e+03 7.9829010000e+01 0.0000e+00 -1.0000e+00
       24  1    1    2    0    0 +7.3870007299e+03 -4.5821506645e+03 +3.7172022871e+03 9.4545147951e+03 7.9829010000e+01 0.0000e+00 -1.0000e+00
       22  1    1    2    0    0 -4.4674426973e+01 +2.8364248784e+01 -2.2348694581e+01 5.7443878559e+01 0.0000000000e+00 0.0000e+00 -1.0000e+00
       22  1    1    2    0    0 +6.0223331478e+02 -4.1188107929e+01 -2.6370535122e+01 6.0421588095e+02 0.0000000000e+00 0.0000e+00 -1.0000e+00
</event>
<event>
 6      1 +1.4834189e-01 1.02856600e+04 7.81653100e-03 6.92176000e-02
  1000022 -1    0    0    0    0 +0.0000000000e+00 +0.0000000000e+00 +4.4721471353e+01 1.0000100000e+04 1.0000000000e+04 0.0000e+00 1.0000e+00
  1000022 -1    0    0    0    0 -0.0000000000e+00 -0.0000000000e+00 -4.4721471353e+01 1.0000100000e+04 1.0000000000e+04 0.0000e+00 1.0000e+00
      -24  1    1    2    0    0 -1.3566884393e+03 -1.6050197393e+03 -5.7216993911e+02 2.1795510994e+03 7.9829010000e+01 0.0000e+00 -1.0000e+00
       24  1    1    2    0    0 +9.2190558927e+03 +1.7536825168e+03 +2.5098865200e+03 9.7145404902e+03 7.9829010000e+01 0.0000e+00 -1.0000e+00
       22  1    1    2    0    0 -3.1505056083e+00 -9.8669474693e+00 -5.2166295703e+00 1.1597222168e+01 0.0000000000e+00 0.0000e+00 1.0000e+00
       22  1    1    2    0    0 -7.8592169478e+03 -1.3879583007e+02 -1.9324999513e+03 8.0945111882e+03 0.0000000000e+00 0.0000e+00 -1.0000e+00
</event>
<event>
 6      1 +1.4834189e-01 1.01474100e+04 7.81653100e-03 6.92990100e-02
  1000022 -1    0    0    0    0 +0.0000000000e+00 +0.0000000000e+00 +4.4721471353e+01 1.0000100000e+04 1.0000000000e+04 0.0000e+00 -1.0000e+00
  1000022 -1    0    0    0    0 -0.0000000000e+00 -0.0000000000e+00 -4.4721471353e+01 1.0000100000e+04 1.0000000000e+04 0.0000e+00 -1.0000e+00
      -24  1    1    2    0    0 -7.8567558188e+02 -3.9821704303e+02 -9.9043896714e+02 1.3278572784e+03 7.9829010000e+01 0.0000e+00 -1.0000e+00
       24  1    1    2    0    0 +9.2312158284e+03 -2.8368354953e+02 +3.4315043099e+03 9.8527872465e+03 7.9829010000e+01 0.0000e+00 -1.0000e+00
       22  1    1    2    0    0 -1.2569048364e+01 -8.8539629015e-01 -1.1493393144e+01 1.7054705782e+01 0.0000000000e+00 0.0000e+00 -1.0000e+00
       22  1    1    2    0    0 -8.4329711981e+03 +6.8278598885e+02 -2.4295719496e+03 8.8025007693e+03 0.0000000000e+00 0.0000e+00 -1.0000e+00
</event>
<event>
 6      1 +1.4834189e-01 1.00066600e+04 7.81653100e-03 6.93832400e-02
  1000022 -1    0    0    0    0 +0.0000000000e+00 +0.0000000000e+00 +4.4721471353e+01 1.0000100000e+04 1.0000000000e+04 0.0000e+00 1.0000e+00
  1000022 -1    0    0    0    0 -0.0000000000e+00 -0.0000000000e+00 -4.4721471353e+01 1.0000100000e+04 1.0000000000e+04 0.0000e+00 1.0000e+00
      -24  1    1    2    0    0 -6.0978798712e+03 +5.7211505244e+03 +5.1246678874e+03 9.8073592711e+03 7.9829010000e+01 0.0000e+00 -1.0000e+00
       24  1    1    2    0    0 +6.2250685129e+03 -5.7819635077e+03 -5.1975225339e+03 9.9600799774e+03 7.9829010000e+01 0.0000e+00 -1.0000e+00
       22  1    1    2    0    0 -1.2376838218e+02 +1.0172540297e+02 +9.4854335488e+01 1.8618274625e+02 0.0000000000e+00 0.0000e+00 1.0000e+00
       22  1    1    2    0    0 -3.4202595798e+00 -4.0912419621e+01 -2.1999688964e+01 4.6578005210e+01 0.0000000000e+00 0.0000e+00 1.0000e+00
</event>
<event>
 6      1 +1.4834189e-01 1.00026700e+04 7.81653100e-03 6.93856400e-02
  1000022 -1    0    0    0    0 +0.0000000000e+00 +0.0000000000e+00 +4.4721471353e+01 1.0000100000e+04 1.0000000000e+04 0.0000e+00 1.0000e+00
  1000022 -1    0    0    0    0 -0.0000000000e+00 -0.0000000000e+00 -4.4721471353e+01 1.0000100000e+04 1.0000000000e+04 0.0000e+00 1.0000e+00
      -24  1    1    2    0    0 +5.8988261202e+03 +3.9256908660e+03 +2.5035908957e+03 7.5154200426e+03 7.9829010000e+01 0.0000e+00 -1.0000e+00
       24  1    1    2    0    0 -7.7746866610e+03 -5.1339300428e+03 -3.3460258972e+03 9.8997602161e+03 7.9829010000e+01 0.0000e+00 -1.0000e+00
       22  1    1    2    0    0 +1.9332033163e+03 +1.2672890346e+03 +9.0420125052e+02 2.4821112910e+03 0.0000000000e+00 0.0000e+00 -1.0000e+00
       22  1    1    2    0    0 -5.7342775594e+01 -5.9049857881e+01 -6.1766249071e+01 1.0290845035e+02 0.0000000000e+00 0.0000e+00 -1.0000e+00
</event>
<event>
 6      1 +1.4834189e-01 7.64212900e+03 7.81653100e-03 7.10504700e-02
  1000022 -1    0    0    0    0 +0.0000000000e+00 +0.0000000000e+00 +4.4721471353e+01 1.0000100000e+04 1.0000000000e+04 0.0000e+00 1.0000e+00
  1000022 -1    0    0    0    0 -0.0000000000e+00 -0.0000000000e+00 -4.4721471353e+01 1.0000100000e+04 1.0000000000e+04 0.0000e+00 1.0000e+00
      -24  1    1    2    0    0 +5.3058879027e+03 +5.9407140241e+03 -9.5552847671e+02 8.0227138110e+03 7.9829010000e+01 0.0000e+00 1.0000e+00
       24  1    1    2    0    0 -2.9581728207e+03 +4.5775530766e+02 -2.8533191423e+03 4.1361974273e+03 7.9829010000e+01 0.0000e+00 1.0000e+00
       22  1    1    2    0    0 -1.3575600623e+01 +4.5671692704e+00 -1.9678687006e+01 2.4339406108e+01 0.0000000000e+00 0.0000e+00 1.0000e+00
       22  1    1    2    0    0 -2.3341394814e+03 -6.4030365011e+03 +3.8285263060e+03 7.8169493556e+03 0.0000000000e+00 0.0000e+00 1.0000e+00
</event>
<event>
 6      1 +1.4834189e-01 1.00795900e+04 7.81653100e-03 6.93394200e-02
  1000022 -1    0    0    0    0 +0.0000000000e+00 +0.0000000000e+00 +4.4721471353e+01 1.0000100000e+04 1.0000000000e+04 0.0000e+00 1.0000e+00
  1000022 -1    0    0    0    0 -0.0000000000e+00 -0.0000000000e+00 -4.4721471353e+01 1.0000100000e+04 1.0000000000e+04 0.0000e+00 1.0000e+00
      -24  1    1    2    0    0 -3.3236143243e+03 +5.8107657864e+03 -7.3053738088e+03 9.9088985441e+03 7.9829010000e+01 0.0000e+00 -1.0000e+00
       24  1    1    2    0    0 +3.3994282063e+03 -5.3865499287e+03 +7.2465675989e+03 9.6483235279e+03 7.9829010000e+01 0.0000e+00 -1.0000e+00
       22  1    1    2    0    0 -1.0853109067e+01 -2.4693016706e+00 -3.6449873552e+00 1.1712103141e+01 0.0000000000e+00 0.0000e+00 -1.0000e+00
       22  1    1    2    0    0 -6.4960772885e+01 -4.2174655609e+02 +6.2451197204e+01 4.3126582477e+02 0.0000000000e+00 0.0000e+00 -1.0000e+00
</event>
<event>
 6      1 +1.4834189e-01 1.00024300e+04 7.81653100e-03 6.93857900e-02
  1000022 -1    0    0    0    0 +0.0000000000e+00 +0.0000000000e+00 +4.4721471353e+01 1.0000100000e+04 1.0000000000e+04 0.0000e+00 1.0000e+00
  1000022 -1    0    0    0    0 -0.0000000000e+00 -0.0000000000e+00 -4.4721471353e+01 1.0000100000e+04 1.0000000000e+04 0.0000e+00 1.0000e+00
      -24  1    1    2    0    0 -1.8992929367e+03 -8.3328202819e+03 +2.3905632743e+03 8.8749294616e+03 7.9829010000e+01 0.0000e+00 -1.0000e+00
       24  1    1    2    0    0 +2.1529935557e+03 +9.3768360242e+03 -2.7181954267e+03 9.9977694574e+03 7.9829010000e+01 0.0000e+00 -1.0000e+00
       22  1    1    2    0    0 -2.4167961411e+02 -1.0061319714e+03 +2.9473826344e+02 1.0759094867e+03 0.0000000000e+00 0.0000e+00 -1.0000e+00
       22  1    1    2    0    0 -1.2021004880e+01 -3.7883770977e+01 +3.2893889013e+01 5.1591594239e+01 0.0000000000e+00 0.0000e+00 -1.0000e+00
</event>
<event>
 6      1 +1.4834189e-01 1.00132300e+04 7.81653100e-03 6.93792700e-02
  1000022 -1    0    0    0    0 +0.0000000000e+00 +0.0000000000e+00 +4.4721471353e+01 1.0000100000e+04 1.0000000000e+04 0.0000e+00 -1.0000e+00
  1000022 -1    0    0    0    0 -0.0000000000e+00 -0.0000000000e+00 -4.4721471353e+01 1.0000100000e+04 1.0000000000e+04 0.0000e+00 -1.0000e+00
      -24  1    1    2    0    0 +3.0449309739e+02 -6.4829154084e+03 +2.5440767611e+03 6.9713418705e+03 7.9829010000e+01 0.0000e+00 1.0000e+00
       24  1    1    2    0    0 -3.0337487726e+01 +9.3702185953e+03 -3.3896548416e+03 9.9648406662e+03 7.9829010000e+01 0.0000e+00 1.0000e+00
       22  1    1    2    0    0 +7.0531925863e+00 +1.7948409547e+01 -1.0863145805e+01 2.2133704337e+01 0.0000000000e+00 0.0000e+00 -1.0000e+00
       22  1    1    2    0    0 -2.8120880225e+02 -2.9052515964e+03 +8.5644122632e+02 3.0418837590e+03 0.0000000000e+00 0.0000e+00 1.0000e+00
</event>
<event>
 6      1 +1.4834189e-01 1.01974000e+04 7.81653100e-03 6.92694200e-02
  1000022 -1    0    0    0    0 +0.0000000000e+00 +0.0000000000e+00 +4.4721471353e+01 1.0000100000e+04 1.0000000000e+04 0.0000e+00 -1.0000e+00
  1000022 -1    0    0    0    0 -0.0000000000e+00 -0.0000000000e+00 -4.4721471353e+01 1.0000100000e+04 1.0000000000e+04 0.0000e+00 -1.0000e+00
      -24  1    1    2    0    0 -3.6750876354e+03 -7.6690777838e+03 -2.8337012512e+03 8.9642210277e+03 7.9829010000e+01 0.0000e+00 1.0000e+00
       24  1    1    2    0    0 +4.0168543443e+03 +5.7888200350e+03 +2.8109309894e+03 7.5863866181e+03 7.9829010000e+01 0.0000e+00 1.0000e+00
       22  1    1    2    0    0 -3.6438508284e+02 -7.1794688479e+02 -2.3451249881e+02 8.3858233351e+02 0.0000000000e+00 0.0000e+00 1.0000e+00
       22  1    1    2    0    0 +2.2618373914e+01 +2.5982046336e+03 +2.5728276059e+02 2.6110100206e+03 0.0000000000e+00 0.0000e+00 1.0000e+00
</event>
<event>
 6      1 +1.4834189e-01 1.00043500e+04 7.81653100e-03 6.93846300e-02
  1000022 -1    0    0    0    0 +0.0000000000e+00 +0.0000000000e+00 +4.4721471353e+01 1.0000100000e+04 1.0000000000e+04 0.0000e+00 1.0000e+00
  1000022 -1    0    0    0    0 -0.0000000000e+00 -0.0000000000e+00 -4.4721471353e+01 1.0000100000e+04 1.0000000000e+04 0.0000e+00 1.0000e+00
      -24  1    1    2    0    0 +3.2821247476e+03 -7.8508480376e+03 +4.4426964414e+03 9.5995876011e+03 7.9829010000e+01 0.0000e+00 1.0000e+00
       24  1    1    2    0    0 -3.2376870752e+03 +7.5749050323e+03 -4.2629093359e+03 9.2758057613e+03 7.9829010000e+01 0.0000e+00 1.0000e+00
       22  1    1    2    0    0 -2.5718709422e+02 +5.8428578966e+02 -3.3306328532e+02 7.2004599677e+02 0.0000000000e+00 0.0000e+00 1.0000e+00
       22  1    1    2    0    0 +2.1274942175e+02 -3.0834278427e+02 +1.5327617986e+02 4.0476064085e+02 0.0000000000e+00 0.0000e+00 1.0000e+00
</event>
<event>
 6      1 +1.4834189e-01 1.01373100e+04 7.81653100e-03 6.93050100e-02
  1000022 -1    0    0    0    0 +0.0000000000e+00 +0.0000000000e+00 +4.4721471353e+01 1.0000100000e+04 1.0000000000e+04 0.0000e+00 1.0000e+00
  1000022 -1    0    0    0    0 -0.0000000000e+00 -0.0000000000e+00 -4.4721471353e+01 1.0000100000e+04 1.0000000000e+04 0.0000e+00 1.0000e+00
      -24  1    1    2    0    0 -2.2069651719e+02 -3.4436790233e+02 -6.1740501249e+02 7.4488779366e+02 7.9829010000e+01 0.0000e+00 0.0000e+00
       24  1    1    2    0    0 +4.3806782483e+02 -1.6274252044e+02 +1.0480460907e+03 1.1502877145e+03 7.9829010000e+01 0.0000e+00 -1.0000e+00
       22  1    1    2    0    0 +3.2375497510e+03 +5.1502128303e+03 +6.6151445991e+03 8.9870216788e+03 0.0000000000e+00 0.0000e+00 1.0000e+00
       22  1    1    2    0    0 -3.4549210587e+03 -4.6431024075e+03 -7.0457856773e+03 9.1180028131e+03 0.0000000000e+00 0.0000e+00 1.0000e+00
</event>
<event>
 6      1 +1.4834189e-01 1.01648900e+04 7.81653100e-03 6.92886400e-02
  1000022 -1    0    0    0    0 +0.0000000000e+00 +0.0000000000e+00 +4.4721471353e+01 1.0000100000e+04 1.0000000000e+04 0.0000e+00 -1.0000e+00
  1000022 -1    0    0    0    0 -0.0000000000e+00 -0.0000000000e+00 -4.4721471353e+01 1.0000100000e+04 1.0000000000e+04 0.0000e+00 -1.0000e+00
      -24  1    1    2    0    0 +5.8436693973e+03 +2.9526307074e+03 +6.8411625026e+03 9.4696555997e+03 7.9829010000e+01 0.0000e+00 1.0000e+00
       24  1    1    2    0    0 -6.0717414389e+03 -2.4428938086e+03 -7.2528007851e+03 9.7695069558e+03 7.9829010000e+01 0.0000e+00 1.0000e+00
       22  1    1    2    0    0 +2.8393703185e+02 -4.7593040549e+02 +4.1978532830e+02 6.9523356563e+02 0.0000000000e+00 0.0000e+00 1.0000e+00
       22  1    1    2    0    0 -5.5864990257e+01 -3.3806493232e+01 -8.1470458084e+00 6.5803878886e+01 0.0000000000e+00 0.0000e+00 1.0000e+00
</event>
<event>
 6      1 +1.4834189e-01 1.03687800e+04 7.81653100e-03 6.91692800e-02
  1000022 -1    0    0    0    0 +0.0000000000e+00 +0.0000000000e+00 +4.4721471353e+01 1.0000100000e+04 1.0000000000e+04 0.0000e+00 1.0000e+00
  1000022 -1    0    0    0    0 -0.0000000000e+00 -0.0000000000e+00 -4.4721471353e+01 1.0000100000e+04 1.0000000000e+04 0.0000e+00 1.0000e+00
      -24  1    1    2    0    0 -4.6594756553e+03 -1.7782301145e+03 -6.9253190724e+03 8.5345903621e+03 7.9829010000e+01 0.0000e+00 1.0000e+00
       24  1    1    2    0    0 +2.6694925844e+02 +1.5085035536e+02 +3.4668687158e+02 4.6966178688e+02 7.9829010000e+01 0.0000e+00 0.0000e+00
       22  1    1    2    0    0 -1.3249778292e+03 -1.2679421494e+03 +3.1483640348e+01 1.8341850402e+03 0.0000000000e+00 0.0000e+00 1.0000e+00
       22  1    1    2    0    0 +5.7175042261e+03 +2.8953219085e+03 +6.5471485605e+03 9.1617628109e+03 0.0000000000e+00 0.0000e+00 1.0000e+00
</event>
<event>
 6      1 +1.4834189e-01 1.00327700e+04 7.81653100e-03 6.93675100e-02
  1000022 -1    0    0    0    0 +0.0000000000e+00 +0.0000000000e+00 +4.4721471353e+01 1.0000100000e+04 1.0000000000e+04 0.0000e+00 1.0000e+00
  1000022 -1    0    0    0    0 -0.0000000000e+00 -0.0000000000e+00 -4.4721471353e+01 1.0000100000e+04 1.0000000000e+04 0.0000e+00 1.0000e+00
      -24  1    1    2    0    0 +1.9084386605e+03 +6.8917803659e+03 -6.9244917004e+03 9.9545835027e+03 7.9829010000e+01 0.0000e+00 -1.0000e+00
       24  1    1    2    0    0 -2.0452297738e+03 -6.7218018335e+03 +6.7493824862e+03 9.7430037120e+03 7.9829010000e+01 0.0000e+00 -1.0000e+00
       22  1    1    2    0    0 +2.2104975801e+00 +9.8526252336e+00 -7.9495786934e+00 1.2851316078e+01 0.0000000000e+00 0.0000e+00 -1.0000e+00
       22  1    1    2    0    0 +1.3458061579e+02 -1.7983115765e+02 +1.8305879287e+02 2.8976146924e+02 0.0000000000e+00 0.0000e+00 -1.0000e+00
</event>
<event>
 6      1 +1.4834189e-01 6.91957800e+03 7.81653100e-03 7.16854000e-02
  1000022 -1    0    0    0    0 +0.0000000000e+00 +0.0000000000e+00 +4.4721471353e+01 1.0000100000e+04 1.0000000000e+04 0.0000e+00 1.0000e+00
  1000022 -1    0    0    0    0 -0.0000000000e+00 -0.0000000000e+00 -4.4721471353e+01 1.0000100000e+04 1.0000000000e+04 0.0000e+00 1.0000e+00
      -24  1    1    2    0    0 -1.5497970938e+03 +4.3465888506e+03 -5.2462003500e+02 4.6450300881e+03 7.9829010000e+01 0.0000e+00 1.0000e+00
       24  1    1    2    0    0 +4.8583984904e+03 +1.9451970710e+02 -4.7569064673e+03 6.8026763570e+03 7.9829010000e+01 0.0000e+00 1.0000e+00
       22  1    1    2    0    0 -2.3162609017e+02 +5.1248784570e+02 -7.9889528500e+01 5.6804645443e+02 0.0000000000e+00 0.0000e+00 -1.0000e+00
       22  1    1    2    0    0 -3.0769753064e+03 -5.0535964034e+03 +5.3614160308e+03 7.9844471005e+03 0.0000000000e+00 0.0000e+00 1.0000e+00
</event>
<event>
 6      1 +1.4834189e-01 1.00323900e+04 7.81653100e-03 6.93677300e-02
  1000022 -1    0    0    0    0 +0.0000000000e+00 +0.0000000000e+00 +4.4721471353e+01 1.0000100000e+04 1.0000000000e+04 0.0000e+00 1.0000e+00
  1000022 -1    0    0    0    0 -0.0000000000e+00 -0.0000000000e+00 -4.4721471353e+01 1.0000100000e+04 1.0000000000e+04 0.0000e+00 1.0000e+00
      -24  1    1    2    0    0 -7.1995243901e+03 -2.7176033474e+03 +6.2099065512e+03 9.8887729998e+03 7.9829010000e+01 0.0000e+00 -1.0000e+00
       24  1    1    2    0    0 +7.1544821186e+03 +2.7460801335e+03 -6.3340454023e+03 9.9425386253e+03 7.9829010000e+01 0.0000e+00 -1.0000e+00
       22  1    1    2    0    0 +2.4777669786e+01 -2.6051949355e+01 +1.3904323858e+02 1.4361636112e+02 0.0000000000e+00 0.0000e+00 -1.0000e+00
       22  1    1    2    0    0 +2.0264601675e+01 -2.4248367887e+00 -1.4904387433e+01 2.5272013756e+01 0.0000000000e+00 0.0000e+00 -1.0000e+00
</event>
<event>
 6      1 +1.4834189e-01 1.02002300e+04 7.81653100e-03 6.92677500e-02
  1000022 -1    0    0    0    0 +0.0000000000e+00 +0.0000000000e+00 +4.4721471353e+01 1.0000100000e+04 1.0000000000e+04 0.0000e+00 1.0000e+00
  1000022 -1    0    0    0    0 -0.0000000000e+00 -0.0000000000e+00 -4.4721471353e+01 1.0000100000e+04 1.0000000000e+04 0.0000e+00 1.0000e+00
      -24  1    1    2    0    0 +1.2367381296e+03 +1.1321299895e+03 -1.7516233117e+03 2.4260660361e+03 7.9829010000e+01 0.0000e+00 -1.0000e+00
       24  1    1    2    0    0 +1.3626705844e+01 -1.5000097670e+03 +3.2827050830e+03 3.6100886860e+03 7.9829010000e+01 0.0000e+00 0.0000e+00
       22  1    1    2    0    0 -3.8046428042e+02 -2.6614235672e+03 +5.5755476842e+03 6.1898837187e+03 0.0000000000e+00 0.0000e+00 -1.0000e+00
       22  1    1    2    0    0 -8.6990055503e+02 +3.0293033447e+03 -7.1066294555e+03 7.7741615591e+03 0.0000000000e+00 0.0000e+00 -1.0000e+00
</event>
<event>
 6      1 +1.4834189e-01 1.00001400e+04 7.81653100e-03 6.93871700e-02
  1000022 -1    0    0    0    0 +0.0000000000e+00 +0.0000000000e+00 +4.4721471353e+01 1.0000100000e+04 1.0000000000e+04 0.0000e+00 1.0000e+00
  1000022 -1    0    0    0    0 -0.0000000000e+00 -0.0000000000e+00 -4.4721471353e+01 1.0000100000e+04 1.0000000000e+04 0.0000e+00 1.0000e+00
      -24  1    1    2    0    0 -3.6304029984e+03 -3.3291148087e+03 -8.3381558444e+03 9.6847326704e+03 7.9829010000e+01 0.0000e+00 -1.0000e+00
       24  1    1    2    0    0 +3.7094129847e+03 +3.4022116956e+03 +8.5061052057e+03 9.8840774761e+03 7.9829010000e+01 0.0000e+00 -1.0000e+00
       22  1    1    2    0    0 +4.2118974349e+01 +3.5784142111e+01 +1.0205844234e+02 1.1606221814e+02 0.0000000000e+00 0.0000e+00 -1.0000e+00
       22  1    1    2    0    0 -1.2112896062e+02 -1.0888102898e+02 -2.7000780364e+02 3.1532763533e+02 0.0000000000e+00 0.0000e+00 -1.0000e+00
</event>
<event>
 6      1 +1.4834189e-01 1.00330300e+04 7.81653100e-03 6.93673500e-02
  1000022 -1    0    0    0    0 +0.0000000000e+00 +0.0000000000e+00 +4.4721471353e+01 1.0000100000e+04 1.0000000000e+04 0.0000e+00 -1.0000e+00
  1000022 -1    0    0    0    0 -0.0000000000e+00 -0.0000000000e+00 -4.4721471353e+01 1.0000100000e+04 1.0000000000e+04 0.0000e+00 -1.0000e+00
      -24  1    1    2    0    0 +7.4412172452e+03 -5.0268732906e+03 -3.1125973244e+03 9.5045149242e+03 7.9829010000e+01 0.0000e+00 1.0000e+00
       24  1    1    2    0    0 -7.8199924611e+03 +5.0827522247e+03 +3.4414355296e+03 9.9416549650e+03 7.9829010000e+01 0.0000e+00 1.0000e+00
       22  1    1    2    0    0 -2.1219417838e+01 +9.7077589774e+00 +1.0322522748e+01 2.5515852987e+01 0.0000000000e+00 0.0000e+00 1.0000e+00
       22  1    1    2    0    0 +3.9999463377e+02 -6.5586693060e+01 -3.3916072790e+02 5.2851425780e+02 0.0000000000e+00 0.0000e+00 1.0000e+00
</event>
<event>
 6      1 +1.4834189e-01 1.00335800e+04 7.81653100e-03 6.93670200e-02
  1000022 -1    0    0    0    0 +0.0000000000e+00 +0.0000000000e+00 +4.4721471353e+01 1.0000100000e+04 1.0000000000e+04 0.0000e+00 1.0000e+00
  1000022 -1    0    0    0    0 -0.0000000000e+00 -0.0000000000e+00 -4.4721471353e+01 1.0000100000e+04 1.0000000000e+04 0.0000e+00 1.0000e+00
      -24  1    1    2    0    0 +4.1844425435e+03 +3.9880447239e+03 -3.1092119804e+03 6.5641169954e+03 7.9829010000e+01 0.0000e+00 1.0000e+00
       24  1    1    2    0    0 -6.7203022988e+03 -5.9153474940e+03 +4.3787446889e+03 9.9666231334e+03 7.9829010000e+01 0.0000e+00 1.0000e+00
       22  1    1    2    0    0 -3.3730533111e+00 -1.0913966403e+01 -4.8162984668e+01 4.9499143865e+01 0.0000000000e+00 0.0000e+00 1.0000e+00
       22  1    1    2    0    0 +2.5392328086e+03 +1.9382167365e+03 -1.2213697239e+03 3.4199607274e+03 0.0000000000e+00 0.0000e+00 1.0000e+00
</event>
<event>
 6      1 +1.4834189e-01 1.05138500e+04 7.81653100e-03 6.90860200e-02
  1000022 -1    0    0    0    0 +0.0000000000e+00 +0.0000000000e+00 +4.4721471353e+01 1.0000100000e+04 1.0000000000e+04 0.0000e+00 -1.0000e+00
  1000022 -1    0    0    0    0 -0.0000000000e+00 -0.0000000000e+00 -4.4721471353e+01 1.0000100000e+04 1.0000000000e+04 0.0000e+00 -1.0000e+00
      -24  1    1    2    0    0 +1.3758355358e+03 +8.5331546399e+03 -9.2024027152e+02 8.6925753582e+03 7.9829010000e+01 0.0000e+00 -1.0000e+00
       24  1    1    2    0    0 -1.5449862967e+03 -9.3335330658e+03 -6.9470814861e+02 9.4863488356e+03 7.9829010000e+01 0.0000e+00 -1.0000e+00
       22  1    1    2    0    0 +1.6550772991e+02 +7.8250849796e+02 +1.6159036681e+03 1.8030133173e+03 0.0000000000e+00 0.0000e+00 -1.0000e+00
       22  1    1    2    0    0 +3.6430309279e+00 +1.7869927967e+01 -9.5524791851e-01 1.8262488836e+01 0.0000000000e+00 0.0000e+00 1.0000e+00
</event>
<event>
 6      1 +1.4834189e-01 1.00052500e+04 7.81653100e-03 6.93840900e-02
  1000022 -1    0    0    0    0 +0.0000000000e+00 +0.0000000000e+00 +4.4721471353e+01 1.0000100000e+04 1.0000000000e+04 0.0000e+00 -1.0000e+00
  1000022 -1    0    0    0    0 -0.0000000000e+00 -0.0000000000e+00 -4.4721471353e+01 1.0000100000e+04 1.0000000000e+04 0.0000e+00 -1.0000e+00
      -24  1    1    2    0    0 -7.8184256642e+03 -5.9622798669e+03 +1.5007937643e+03 9.9466233301e+03 7.9829010000e+01 0.0000e+00 1.0000e+00
       24  1    1    2    0    0 +7.8673603893e+03 +5.9766597576e+03 -1.5089437826e+03 9.9949539950e+03 7.9829010000e+01 0.0000e+00 1.0000e+00
       22  1    1    2    0    0 -2.8140493721e+01 +6.1759628643e+00 +4.3772077850e+00 2.9140862241e+01 0.0000000000e+00 0.0000e+00 -1.0000e+00
       22  1    1    2    0    0 -2.0794231333e+01 -2.0555853605e+01 +3.7728104888e+00 2.9481812583e+01 0.0000000000e+00 0.0000e+00 1.0000e+00
</event>
<event>
 6      1 +1.4834189e-01 1.00674500e+04 7.81653100e-03 6.93466800e-02
  1000022 -1    0    0    0    0 +0.0000000000e+00 +0.0000000000e+00 +4.4721471353e+01 1.0000100000e+04 1.0000000000e+04 0.0000e+00 -1.0000e+00
  1000022 -1    0    0    0    0 -0.0000000000e+00 -0.0000000000e+00 -4.4721471353e+01 1.0000100000e+04 1.0000000000e+04 0.0000e+00 -1.0000e+00
      -24  1    1    2    0    0 -1.2783119171e+03 -4.1754397383e+03 +8.9210249668e+03 9.9327457178e+03 7.9829010000e+01 0.0000e+00 -1.0000e+00
       24  1    1    2    0    0 +1.6141198871e+03 +3.7741182960e+03 -8.1537266776e+03 9.1290187494e+03 7.9829010000e+01 0.0000e+00 -1.0000e+00
       22  1    1    2    0    0 -3.0755648752e+02 +4.0795297525e+02 -7.1768957406e+02 8.8096251211e+02 0.0000000000e+00 0.0000e+00 1.0000e+00
       22  1    1    2    0    0 -2.8251482457e+01 -6.6315329536e+00 -4.9608715133e+01 5.7473020692e+01 0.0000000000e+00 0.0000e+00 1.0000e+00
</event>
<event>
 6      1 +1.4834189e-01 1.00128600e+04 7.81653100e-03 6.93795000e-02
  1000022 -1    0    0    0    0 +0.0000000000e+00 +0.0000000000e+00 +4.4721471353e+01 1.0000100000e+04 1.0000000000e+04 0.0000e+00 1.0000e+00
  1000022 -1    0    0    0    0 -0.0000000000e+00 -0.0000000000e+00 -4.4721471353e+01 1.0000100000e+04 1.0000000000e+04 0.0000e+00 1.0000e+00
      -24  1    1    2    0    0 +3.5597226057e+01 +1.0458303437e+02 -1.5868949980e+01 1.3721977988e+02 7.9829010000e+01 0.0000e+00 0.0000e+00
       24  1    1    2    0    0 -1.8143772270e+03 -9.4419283300e+03 +2.6505157896e+03 9.9736443656e+03 7.9829010000e+01 0.0000e+00 1.0000e+00
       22  1    1    2    0    0 -3.7158542424e+00 -9.3327510617e+00 +9.3137541303e+00 1.3698679905e+01 0.0000000000e+00 0.0000e+00 -1.0000e+00
       22  1    1    2    0    0 +1.7824958552e+03 +9.3466780467e+03 -2.6439605938e+03 9.8756371746e+03 0.0000000000e+00 0.0000e+00 1.0000e+00
</event>
<event>
 6      1 +1.4834189e-01 1.00251700e+04 7.81653100e-03 6.93720800e-02
  1000022 -1    0    0    0    0 +0.0000000000e+00 +0.0000000000e+00 +4.4721471353e+01 1.0000100000e+04 1.0000000000e+04 0.0000e+00 1.0000e+00
  1000022 -1    0    0    0    0 -0.0000000000e+00 -0.0000000000e+00 -4.4721471353e+01 1.0000100000e+04 1.0000000000e+04 0.0000e+00 1.0000e+00
      -24  1    1    2    0    0 +4.4055551917e+03 -7.9205088556e+03 -3.8338588863e+03 9.8411495116e+03 7.9829010000e+01 0.0000e+00 1.0000e+00
       24  1    1    2    0    0 -1.6594365372e+03 +2.7635158362e+03 +8.5782799605e+02 3.3366136935e+03 7.9829010000e+01 0.0000e+00 -1.0000e+00
       22  1    1    2    0    0 -2.8089461893e+03 +5.2688550752e+03 +3.0142716376e+03 6.6885608320e+03 0.0000000000e+00 0.0000e+00 1.0000e+00
       22  1    1    2    0    0 +6.2827534827e+01 -1.1186205586e+02 -3.8240747350e+01 1.3387596286e+02 0.0000000000e+00 0.0000e+00 -1.0000e+00
</event>
<event>
 6      1 +1.4834189e-01 1.00072400e+04 7.81653100e-03 6.93828800e-02
  1000022 -1    0    0    0    0 +0.0000000000e+00 +0.0000000000e+00 +4.4721471353e+01 1.0000100000e+04 1.0000000000e+04 0.0000e+00 -1.0000e+00
  1000022 -1    0    0    0    0 -0.0000000000e+00 -0.0000000000e+00 -4.4721471353e+01 1.0000100000e+04 1.0000000000e+04 0.0000e+00 -1.0000e+00
      -24  1    1    2    0    0 +2.8630626590e+03 -7.8319667193e+03 +5.3458713533e+03 9.9056319172e+03 7.9829010000e+01 0.0000e+00 1.0000e+00
       24  1    1    2    0    0 -2.8953583217e+03 +7.9166975767e+03 -5.3661578539e+03 9.9929586768e+03 7.9829010000e+01 0.0000e+00 1.0000e+00
       22  1    1    2    0    0 +1.9416992980e+01 -4.7761284211e+01 +3.2079995495e+01 6.0723026907e+01 0.0000000000e+00 0.0000e+00 1.0000e+00
       22  1    1    2    0    0 +1.2878669655e+01 -3.6969573183e+01 -1.1793494898e+01 4.0886379093e+01 0.0000000000e+00 0.0000e+00 1.0000e+00
</event>
<event>
 6      1 +1.4834189e-01 1.00012600e+04 7.81653100e-03 6.93864900e-02
  1000022 -1    0    0    0    0 +0.0000000000e+00 +0.0000000000e+00 +4.4721471353e+01 1.0000100000e+04 1.0000000000e+04 0.0000e+00 1.0000e+00
  1000022 -1    0    0    0    0 -0.0000000000e+00 -0.0000000000e+00 -4.4721471353e+01 1.0000100000e+04 1.0000000000e+04 0.0000e+00 1.0000e+00
      -24  1    1    2    0    0 -9.1254880570e+03 +2.9413265263e+03 +2.4441727854e+03 9.8947605979e+03 7.9829010000e+01 0.0000e+00 -1.0000e+00
       24  1    1    2    0    0 +9.1546126240e+03 -2.9715999324e+03 -2.4545136493e+03 9.9331942686e+03 7.9829010000e+01 0.0000e+00 -1.0000e+00
       22  1    1    2    0    0 +3.1886936707e+01 -5.6977381907e+01 +7.7033049997e+00 6.5746024134e+01 0.0000000000e+00 0.0000e+00 -1.0000e+00
       22  1    1    2    0    0 -6.1011503634e+01 +8.7250787967e+01 +2.6375589369e+00 1.0649910936e+02 0.0000000000e+00 0.0000e+00 -1.0000e+00
</event>
<event>
 6      1 +1.4834189e-01 9.03648700e+03 7.81653100e-03 7.00045400e-02
  1000022 -1    0    0    0    0 +0.0000000000e+00 +0.0000000000e+00 +4.4721471353e+01 1.0000100000e+04 1.0000000000e+04 0.0000e+00 1.0000e+00
  1000022 -1    0    0    0    0 -0.0000000000e+00 -0.0000000000e+00 -4.4721471353e+01 1.0000100000e+04 1.0000000000e+04 0.0000e+00 1.0000e+00
      -24  1    1    2    0    0 -6.2210256055e+03 +5.5694894632e+03 +3.7890863940e+02 8.3588466246e+03 7.9829010000e+01 0.0000e+00 -1.0000e+00
       24  1    1    2    0    0 +1.6151794912e+02 -7.0442734192e+02 -1.6849116230e+03 1.8351037508e+03 7.9829010000e+01 0.0000e+00 -1.0000e+00
       22  1    1    2    0    0 +6.7786237708e+03 -5.5214499863e+03 +1.2413772218e+03 8.8304681407e+03 0.0000000000e+00 0.0000e+00 -1.0000e+00
       22  1    1    2    0    0 -7.1911611447e+02 +6.5638786494e+02 +6.4625761831e+01 9.7578148395e+02 0.0000000000e+00 0.0000e+00 -1.0000e+00
</event>
<event>
 6      1 +1.4834189e-01 1.00017100e+04 7.81653100e-03 6.93862200e-02
  1000022 -1    0    0    0    0 +0.0000000000e+00 +0.0000000000e+00 +4.4721471353e+01 1.0000100000e+04 1.0000000000e+04 0.0000e+00 1.0000e+00
  1000022 -1    0    0    0    0 -0.0000000000e+00 -0.0000000000e+00 -4.4721471353e+01 1.0000100000e+04 1.0000000000e+04 0.0000e+00 1.0000e+00
      -24  1    1    2    0    0 -4.9651857136e+03 +2.8647935113e+03 +2.0834167057e+03 6.0997630178e+03 7.9829010000e+01 0.0000e+00 -1.0000e+00
       24  1    1    2    0    0 +5.8335823735e+03 -3.4928101135e+03 -2.4530289717e+03 7.2287017924e+03 7.9829010000e+01 0.0000e+00 -1.0000e+00
       22  1    1    2    0    0 +2.3166296237e+03 -1.2003574168e+03 -9.3910940828e+02 2.7730050887e+03 0.0000000000e+00 0.0000e+00 -1.0000e+00
       22  1    1    2    0    0 -3.1850262836e+03 +1.8283740189e+03 +1.3087216743e+03 3.8987301011e+03 0.0000000000e+00 0.0000e+00 1.0000e+00
</event>
<event>
 6      1 +1.4834189e-01 1.00466600e+04 7.81653100e-03 6.93591600e-02
  1000022 -1    0    0    0    0 +0.0000000000e+00 +0.0000000000e+00 +4.4721471353e+01 1.0000100000e+04 1.0000000000e+04 0.0000e+00 -1.0000e+00
  1000022 -1    0    0    0    0 -0.0000000000e+00 -0.0000000000e+00 -4.4721471353e+01 1.0000100000e+04 1.0000000000e+04 0.0000e+00 -1.0000e+00
      -24  1    1    2    0    0 -1.5103579573e+03 -4.0055731227e+03 -1.8824258003e+03 4.6771462202e+03 7.9829010000e+01 0.0000e+00 1.0000e+00
       24  1    1    2    0    0 +1.7048468009e+03 +6.4474167815e+03 +3.8824140169e+03 7.7172013735e+03 7.9829010000e+01 0.0000e+00 1.0000e+00
       22  1    1    2    0    0 -6.9891905177e+02 -4.2944192518e+03 -3.1466064262e+03 5.3695117611e+03 0.0000000000e+00 0.0000e+00 1.0000e+00
       22  1    1    2    0    0 +5.0443020814e+02 +1.8525755930e+03 +1.1466182096e+03 2.2363406452e+03 0.0000000000e+00 0.0000e+00 1.0000e+00
</event>
<event>
 6      1 +1.4834189e-01 1.00272600e+04 7.81653100e-03 6.93708200e-02
  1000022 -1    0    0    0    0 +0.0000000000e+00 +0.0000000000e+00 +4.4721471353e+01 1.0000100000e+04 1.0000000000e+04 0.0000e+00 -1.0000e+00
  1000022 -1    0    0    0    0 -0.0000000000e+00 -0.0000000000e+00 -4.4721471353e+01 1.0000100000e+04 1.0000000000e+04 0.0000e+00 -1.0000e+00
      -24  1    1    2    0    0 +1.8838184743e+03 +4.8475941819e+03 +4.2580438828e+03 6.7219976030e+03 7.9829010000e+01 0.0000e+00 -1.0000e+00
       24  1    1    2    0    0 -2.8132125574e+03 -7.1935752956e+03 -6.0589056258e+03 9.8172501486e+03 7.9829010000e+01 0.0000e+00 -1.0000e+00
       22  1    1    2    0    0 +8.6614908588e+02 +2.4243752932e+03 +1.9851438404e+03 3.2509392286e+03 0.0000000000e+00 0.0000e+00 -1.0000e+00
       22  1    1    2    0    0 +6.3244997223e+01 -7.8394179513e+01 -1.8428209738e+02 2.1001301976e+02 0.0000000000e+00 0.0000e+00 1.0000e+00
</event>
<event>
 6      1 +1.4834189e-01 1.00120000e+04 7.81653100e-03 6.93800100e-02
  1000022 -1    0    0    0    0 +0.0000000000e+00 +0.0000000000e+00 +4.4721471353e+01 1.0000100000e+04 1.0000000000e+04 0.0000e+00 1.0000e+00
  1000022 -1    0    0    0    0 -0.0000000000e+00 -0.0000000000e+00 -4.4721471353e+01 1.0000100000e+04 1.0000000000e+04 0.0000e+00 1.0000e+00
      -24  1    1    2    0    0 -5.7176691062e+03 -2.2828620913e+03 -3.9226777681e+03 7.3004775788e+03 7.9829010000e+01 0.0000e+00 1.0000e+00
       24  1    1    2    0    0 +7.7510974750e+03 +3.1894979297e+03 +5.0454762116e+03 9.7834355920e+03 7.9829010000e+01 0.0000e+00 1.0000e+00
       22  1    1    2    0    0 +1.1764458646e+02 +2.1057236169e+01 +1.9482578952e+02 2.2856234200e+02 0.0000000000e+00 0.0000e+00 1.0000e+00
       22  1    1    2    0    0 -2.1510729553e+03 -9.2769307453e+02 -1.3176242330e+03 2.6877244872e+03 0.0000000000e+00 0.0000e+00 -1.0000e+00
</event>
<event>
 6      1 +1.4834189e-01 1.00552400e+04 7.81653100e-03 6.93540100e-02
  1000022 -1    0    0    0    0 +0.0000000000e+00 +0.0000000000e+00 +4.4721471353e+01 1.0000100000e+04 1.0000000000e+04 0.0000e+00 -1.0000e+00
  1000022 -1    0    0    0    0 -0.0000000000e+00 -0.0000000000e+00 -4.4721471353e+01 1.0000100000e+04 1.0000000000e+04 0.0000e+00 -1.0000e+00
      -24  1    1    2    0    0 -5.0989430697e+02 -1.9004497767e+03 +6.2356124718e+02 2.0656482899e+03 7.9829010000e+01 0.0000e+00 -1.0000e+00
       24  1    1    2    0    0 +2.2036243857e+03 +9.1205566877e+03 -3.2947403677e+03 9.9449585966e+03 7.9829010000e+01 0.0000e+00 -1.0000e+00
       22  1    1    2    0    0 -1.7184527551e+03 -7.1291134525e+03 +2.4215904917e+03 7.7227869969e+03 0.0000000000e+00 0.0000e+00 -1.0000e+00
       22  1    1    2    0    0 +2.4722676303e+01 -9.0993458495e+01 +2.4958862885e+02 2.6680611662e+02 0.0000000000e+00 0.0000e+00 1.0000e+00
</event>
<event>
 6      1 +1.4834189e-01 1.00005400e+04 7.81653100e-03 6.93869300e-02
  1000022 -1    0    0    0    0 +0.0000000000e+00 +0.0000000000e+00 +4.4721471353e+01 1.0000100000e+04 1.0000000000e+04 0.0000e+00 1.0000e+00
  1000022 -1    0    0    0    0 -0.0000000000e+00 -0.0000000000e+00 -4.4721471353e+01 1.0000100000e+04 1.0000000000e+04 0.0000e+00 1.0000e+00
      -24  1    1    2    0    0 -1.8568566247e+03 -7.8333822849e+03 -5.3573941111e+03 9.6704621854e+03 7.9829010000e+01 0.0000e+00 -1.0000e+00
       24  1    1    2    0    0 +1.8667091368e+03 +7.6285520248e+03 +5.2639615843e+03 9.4548967857e+03 7.9829010000e+01 0.0000e+00 -1.0000e+00
       22  1    1    2    0    0 +6.2081624667e+01 +4.5420469037e+02 +2.9593182217e+02 5.4564793801e+02 0.0000000000e+00 0.0000e+00 -1.0000e+00
       22  1    1    2    0    0 -7.1934136823e+01 -2.4937443023e+02 -2.0249929537e+02 3.2919309094e+02 0.0000000000e+00 0.0000e+00 -1.0000e+00
</event>
<event>
 6      1 +1.4834189e-01 1.00668500e+04 7.81653100e-03 6.93470400e-02
  1000022 -1    0    0    0    0 +0.0000000000e+00 +0.0000000000e+00 +4.4721471353e+01 1.0000100000e+04 1.0000000000e+04 0.0000e+00 1.0000e+00
  1000022 -1    0    0    0    0 -0.0000000000e+00 -0.0000000000e+00 -4.4721471353e+01 1.0000100000e+04 1.0000000000e+04 0.0000e+00 1.0000e+00
      -24  1    1    2    0    0 +2.7536081896e+02 +4.4246603577e+03 +8.8888453576e+03 9.9333472366e+03 7.9829010000e+01 0.0000e+00 1.0000e+00
       24  1    1    2    0    0 +2.5627346141e+02 -9.0238205690e+02 -2.0277819614e+03 2.2356748014e+03 7.9829010000e+01 0.0000e+00 1.0000e+00
       22  1    1    2    0    0 -5.0882550356e+01 +9.3160556189e+01 -8.5412859767e+01 1.3624712758e+02 0.0000000000e+00 0.0000e+00 1.0000e+00
       22  1    1    2    0    0 -4.8075173001e+02 -3.6154388570e+03 -6.7756505364e+03 7.6949308344e+03 0.0000000000e+00 0.0000e+00 1.0000e+00
</event>
<event>
 6      1 +1.4834189e-01 5.70276900e+03 7.81653100e-03 7.29554000e-02
  1000022 -1    0    0    0    0 +0.0000000000e+00 +0.0000000000e+00 +4.4721471353e+01 1.0000100000e+04 1.0000000000e+04 0.0000e+00 -1.0000e+00
  1000022 -1    0    0    0    0 -0.0000000000e+00 -0.0000000000e+00 -4.4721471353e+01 1.0000100000e+04 1.0000000000e+04 0.0000e+00 -1.0000e+00
      -24  1    1    2    0    0 +4.6746141812e+03 -4.8542484006e+03 -3.7419849715e+02 6.7499735158e+03 7.9829010000e+01 0.0000e+00 -1.0000e+00
       24  1    1    2    0    0 +9.9434927436e+02 +6.9695428712e+03 +1.5602845058e+02 7.0422990465e+03 7.9829010000e+01 0.0000e+00 -1.0000e+00
       22  1    1    2    0    0 -5.6981598843e+03 -2.2042025471e+03 +2.2767217941e+02 6.1138669888e+03 0.0000000000e+00 0.0000e+00 -1.0000e+00
       22  1    1    2    0    0 +2.9196428778e+01 +8.8908076491e+01 -9.5021328408e+00 9.4060448899e+01 0.0000000000e+00 0.0000e+00 -1.0000e+00
</event>
<event>
 6      1 +1.4834189e-01 1.00482800e+04 7.81653100e-03 6.93581900e-02
  1000022 -1    0    0    0    0 +0.0000000000e+00 +0.0000000000e+00 +4.4721471353e+01 1.0000100000e+04 1.0000000000e+04 0.0000e+00 1.0000e+00
  1000022 -1    0    0    0    0 -0.0000000000e+00 -0.0000000000e+00 -4.4721471353e+01 1.0000100000e+04 1.0000000000e+04 0.0000e+00 1.0000e+00
      -24  1    1    2    0    0 -1.3842100084e+03 +9.5275987499e+03 +2.5185796576e+03 9.9519240074e+03 7.9829010000e+01 0.0000e+00 -1.0000e+00
       24  1    1    2    0    0 +1.3183699799e+03 -9.4304208753e+03 -2.4620641280e+03 9.8356021539e+03 7.9829010000e+01 0.0000e+00 -1.0000e+00
       22  1    1    2    0    0 -4.7271628561e+01 -7.5721079643e+01 -3.2987817560e+01 9.5165565603e+01 0.0000000000e+00 0.0000e+00 1.0000e+00
       22  1    1    2    0    0 +1.1311165707e+02 -2.1456794990e+01 -2.3527712076e+01 1.1750827312e+02 0.0000000000e+00 0.0000e+00 -1.0000e+00
</event>
<event>
 6      1 +1.4834189e-01 1.01840200e+04 7.81653100e-03 6.92773200e-02
  1000022 -1    0    0    0    0 +0.0000000000e+00 +0.0000000000e+00 +4.4721471353e+01 1.0000100000e+04 1.0000000000e+04 0.0000e+00 -1.0000e+00
  1000022 -1    0    0    0    0 -0.0000000000e+00 -0.0000000000e+00 -4.4721471353e+01 1.0000100000e+04 1.0000000000e+04 0.0000e+00 -1.0000e+00
      -24  1    1    2    0    0 -3.1402712187e+03 +8.9348780998e+03 +2.5802284628e+03 9.8161755066e+03 7.9829010000e+01 0.0000e+00 -1.0000e+00
       24  1    1    2    0    0 +2.8613543235e+03 -9.0119166278e+03 -2.3004913706e+03 9.7314245149e+03 7.9829010000e+01 0.0000e+00 -1.0000e+00
       22  1    1    2    0    0 +2.6968923676e+02 +1.2896484867e+02 -2.6032684172e+02 3.9640166641e+02 0.0000000000e+00 0.0000e+00 1.0000e+00
       22  1    1    2    0    0 +9.2276584239e+00 -5.1926320673e+01 -1.9410250456e+01 5.6198312087e+01 0.0000000000e+00 0.0000e+00 1.0000e+00
</event>
<event>
 6      1 +1.4834189e-01 1.00395600e+04 7.81653100e-03 6.93634200e-02
  1000022 -1    0    0    0    0 +0.0000000000e+00 +0.0000000000e+00 +4.4721471353e+01 1.0000100000e+04 1.0000000000e+04 0.0000e+00 1.0000e+00
  1000022 -1    0    0    0    0 -0.0000000000e+00 -0.0000000000e+00 -4.4721471353e+01 1.0000100000e+04 1.0000000000e+04 0.0000e+00 1.0000e+00
      -24  1    1    2    0    0 +6.1320823037e+03 +6.0007816712e+03 +4.4940637020e+03 9.6858038011e+03 7.9829010000e+01 0.0000e+00 1.0000e+00
       24  1    1    2    0    0 -5.3937695080e+03 -4.3334765311e+03 -3.6097435490e+03 7.8043827117e+03 7.9829010000e+01 0.0000e+00 1.0000e+00
       22  1    1    2    0    0 -9.5375086026e+02 -1.7321136772e+03 -1.0421868901e+03 2.2351760575e+03 0.0000000000e+00 0.0000e+00 1.0000e+00
       22  1    1    2    0    0 +2.1543806453e+02 +6.4808537028e+01 +1.5786673708e+02 2.7483742976e+02 0.0000000000e+00 0.0000e+00 -1.0000e+00
</event>
<event>
 6      1 +1.4834189e-01 1.01232000e+04 7.81653100e-03 6.93133900e-02
  1000022 -1    0    0    0    0 +0.0000000000e+00 +0.0000000000e+00 +4.4721471353e+01 1.0000100000e+04 1.0000000000e+04 0.0000e+00 1.0000e+00
  1000022 -1    0    0    0    0 -0.0000000000e+00 -0.0000000000e+00 -4.4721471353e+01 1.0000100000e+04 1.0000000000e+04 0.0000e+00 1.0000e+00
      -24  1    1    2    0    0 -4.5959576006e+01 +1.4848267462e+02 +6.0006729440e+01 1.8475082058e+02 7.9829010000e+01 0.0000e+00 0.0000e+00
       24  1    1    2    0    0 +9.2447609676e+01 -5.8551847411e+03 -3.1452845196e+03 6.6476253123e+03 7.9829010000e+01 0.0000e+00 1.0000e+00
       22  1    1    2    0    0 +3.1133527324e+02 +7.6476433362e+03 +5.9461100856e+03 9.6922444976e+03 0.0000000000e+00 0.0000e+00 1.0000e+00
       22  1    1    2    0    0 -3.5782330691e+02 -1.9409412698e+03 -2.8608322954e+03 3.4755793696e+03 0.0000000000e+00 0.0000e+00 1.0000e+00
</event>
<event>
 6      1 +1.4834189e-01 1.00169000e+04 7.81653100e-03 6.93770600e-02
  1000022 -1    0    0    0    0 +0.0000000000e+00 +0.0000000000e+00 +4.4721471353e+01 1.0000100000e+04 1.0000000000e+04 0.0000e+00 -1.0000e+00
  1000022 -1    0    0    0    0 -0.0000000000e+00 -0.0000000000e+00 -4.4721471353e+01 1.0000100000e+04 1.0000000000e+04 0.0000e+00 -1.0000e+00
      -24  1    1    2    0    0 -3.6490706087e+03 -3.1980867505e+03 +3.0328416821e+03 5.7225847752e+03 7.9829010000e+01 0.0000e+00 -1.0000e+00
       24  1    1    2    0    0 +6.3774417716e+03 +6.0097948342e+03 -4.7288164345e+03 9.9577846453e+03 7.9829010000e+01 0.0000e+00 -1.0000e+00
       22  1    1    2    0    0 -2.7473262706e+03 -2.8274749755e+03 +1.7025562228e+03 4.2943118269e+03 0.0000000000e+00 0.0000e+00 -1.0000e+00
       22  1    1    2    0    0 +1.8955107719e+01 +1.5766891757e+01 -6.5814703806e+00 2.5518752647e+01 0.0000000000e+00 0.0000e+00 -1.0000e+00
</event>
<event>
 6      1 +1.4834189e-01 1.00690100e+04 7.81653100e-03 6.93457500e-02
  1000022 -1    0    0    0    0 +0.0000000000e+00 +0.0000000000e+00 +4.4721471353e+01 1.0000100000e+04 1.0000000000e+04 0.0000e+00 1.0000e+00
  1000022 -1    0    0    0    0 -0.0000000000e+00 -0.0000000000e+00 -4.4721471353e+01 1.0000100000e+04 1.0000000000e+04 0.0000e+00 1.0000e+00
      -24  1    1    2    0    0 +5.1036624484e+01 -1.7387949210e+03 +1.6768987961e+03 2.4175141691e+03 7.9829010000e+01 0.0000e+00 1.0000e+00
       24  1    1    2    0    0 +2.3273518312e+03 +7.8125355661e+03 -5.5867853275e+03 9.8828549258e+03 7.9829010000e+01 0.0000e+00 1.0000e+00
       22  1    1    2    0    0 -2.3965990315e+03 -6.1033085879e+03 +3.9435116994e+03 7.6514931327e+03 0.0000000000e+00 0.0000e+00 1.0000e+00
       22  1    1    2    0    0 +1.8210575832e+01 +2.9567942762e+01 -3.3625168028e+01 4.8337772355e+01 0.0000000000e+00 0.0000e+00 -1.0000e+00
</event>
<event>
 6      1 +1.4834189e-01 1.03845700e+04 7.81653100e-03 6.91601500e-02
  1000022 -1    0    0    0    0 +0.0000000000e+00 +0.0000000000e+00 +4.4721471353e+01 1.0000100000e+04 1.0000000000e+04 0.0000e+00 1.0000e+00
  1000022 -1    0    0    0    0 -0.0000000000e+00 -0.0000000000e+00 -4.4721471353e+01 1.0000100000e+04 1.0000000000e+04 0.0000e+00 1.0000e+00
      -24  1    1    2    0    0 -3.6601154520e+03 -8.3422753975e+03 -3.0763616284e+03 9.6156319329e+03 7.9829010000e+01 0.0000e+00 1.0000e+00
       24  1    1    2    0    0 +1.4067338532e+03 +9.9903417594e+02 +1.9359463129e+03 2.5944614501e+03 7.9829010000e+01 0.0000e+00 1.0000e+00
       22  1    1    2    0    0 +2.2233242152e+03 +7.3231369607e+03 +1.0935852651e+03 7.7309400620e+03 0.0000000000e+00 0.0000e+00 1.0000e+00
       22  1    1    2    0    0 +3.0057383569e+01 +2.0104260896e+01 +4.6830050332e+01 5.9166554972e+01 0.0000000000e+00 0.0000e+00 1.0000e+00
</event>
<event>
 6      1 +1.4834189e-01 1.00790000e+04 7.81653100e-03 6.93397700e-02
  1000022 -1    0    0    0    0 +0.0000000000e+00 +0.0000000000e+00 +4.4721471353e+01 1.0000100000e+04 1.0000000000e+04 0.0000e+00 1.0000e+00
  1000022 -1    0    0    0    0 -0.0000000000e+00 -0.0000000000e+00 -4.4721471353e+01 1.0000100000e+04 1.0000000000e+04 0.0000e+00 1.0000e+00
      -24  1    1    2    0    0 +7.3322487834e+03 +5.2560753948e+03 +3.6261636518e+03 9.7233551965e+03 7.9829010000e+01 0.0000e+00 -1.0000e+00
       24  1    1    2    0    0 -7.3139910728e+03 -5.5533378087e+03 -3.7536353579e+03 9.9211983803e+03 7.9829010000e+01 0.0000e+00 -1.0000e+00
       22  1    1    2    0    0 +5.7316912301e+01 +7.5802149940e+01 +5.8902400597e+01 1.1180647194e+02 0.0000000000e+00 0.0000e+00 1.0000e+00
       22  1    1    2    0    0 -7.5574622932e+01 +2.2146026399e+02 +6.8569305532e+01 2.4383995123e+02 0.0000000000e+00 0.0000e+00 -1.0000e+00
</event>
<event>
 6      1 +1.4834189e-01 1.00013900e+04 7.81653100e-03 6.93864200e-02
  1000022 -1    0    0    0    0 +0.0000000000e+00 +0.0000000000e+00 +4.4721471353e+01 1.0000100000e+04 1.0000000000e+04 0.0000e+00 1.0000e+00
  1000022 -1    0    0    0    0 -0.0000000000e+00 -0.0000000000e+00 -4.4721471353e+01 1.0000100000e+04 1.0000000000e+04 0.0000e+00 1.0000e+00
      -24  1    1    2    0    0 +6.9715582310e+03 -6.7202188515e+03 +1.1827367309e+03 9.7554704872e+03 7.9829010000e+01 0.0000e+00 -1.0000e+00
       24  1    1    2    0    0 -6.9102144151e+03 +6.6340080784e+03 -1.2010493569e+03 9.6545335815e+03 7.9829010000e+01 0.0000e+00 -1.0000e+00
       22  1    1    2    0    0 -2.3822162461e+02 +2.5209710575e+02 -1.9885523237e+00 3.4685219835e+02 0.0000000000e+00 0.0000e+00 -1.0000e+00
       22  1    1    2    0    0 +1.7687780873e+02 -1.6588633256e+02 +2.0301178326e+01 2.4334373301e+02 0.0000000000e+00 0.0000e+00 -1.0000e+00
</event>
<event>
 6      1 +1.4834189e-01 1.00708300e+04 7.81653100e-03 6.93446600e-02
  1000022 -1    0    0    0    0 +0.0000000000e+00 +0.0000000000e+00 +4.4721471353e+01 1.0000100000e+04 1.0000000000e+04 0.0000e+00 1.0000e+00
  1000022 -1    0    0    0    0 -0.0000000000e+00 -0.0000000000e+00 -4.4721471353e+01 1.0000100000e+04 1.0000000000e+04 0.0000e+00 1.0000e+00
      -24  1    1    2    0    0 -8.5292264425e+01 +6.5505995093e+02 -3.2418888912e+01 6.6618463273e+02 7.9829010000e+01 0.0000e+00 1.0000e+00
       24  1    1    2    0    0 +4.7620776715e+03 -7.5881183097e+03 -4.0932592516e+03 9.8497749824e+03 7.9829010000e+01 0.0000e+00 -1.0000e+00
       22  1    1    2    0    0 +3.8058395117e+01 -6.2801582572e+01 -3.0707303334e+01 7.9595343397e+01 0.0000000000e+00 0.0000e+00 -1.0000e+00
       22  1    1    2    0    0 -4.7148438022e+03 +6.9958599414e+03 +4.1563854439e+03 9.4046450415e+03 0.0000000000e+00 0.0000e+00 -1.0000e+00
</event>
<event>
 6      1 +1.4834189e-01 1.00128400e+04 7.81653100e-03 6.93795100e-02
  1000022 -1    0    0    0    0 +0.0000000000e+00 +0.0000000000e+00 +4.4721471353e+01 1.0000100000e+04 1.0000000000e+04 0.0000e+00 1.0000e+00
  1000022 -1    0    0    0    0 -0.0000000000e+00 -0.0000000000e+00 -4.4721471353e+01 1.0000100000e+04 1.0000000000e+04 0.0000e+00 1.0000e+00
      -24  1    1    2    0    0 -7.5777196958e+03 +4.0432676433e+03 -5.0961930217e+03 9.9873622648e+03 7.9829010000e+01 0.0000e+00 -1.0000e+00
       24  1    1    2    0    0 +5.9951375087e+03 -3.4787577206e+03 +4.1198555591e+03 8.0636847362e+03 7.9829010000e+01 0.0000e+00 -1.0000e+00
       22  1    1    2    0    0 +3.6734089425e+01 +1.5307267515e+00 +3.4197786578e+00 3.6924671107e+01 0.0000000000e+00 0.0000e+00 1.0000e+00
       22  1    1    2    0    0 +1.5458480977e+03 -5.6604064946e+02 +9.7291768390e+02 1.9122283278e+03 0.0000000000e+00 0.0000e+00 -1.0000e+00
</event>
<event>
 6      1 +1.4834189e-01 1.00009300e+04 7.81653100e-03 6.93866900e-02
  1000022 -1    0    0    0    0 +0.0000000000e+00 +0.0000000000e+00 +4.4721471353e+01 1.0000100000e+04 1.0000000000e+04 0.0000e+00 -1.0000e+00
  1000022 -1    0    0    0    0 -0.0000000000e+00 -0.0000000000e+00 -4.4721471353e+01 1.0000100000e+04 1.0000000000e+04 0.0000e+00 -1.0000e+00
      -24  1    1    2    0    0 -9.4075570897e+02 +1.8544794812e+02 +2.0201736251e+03 2.2376072916e+03 7.9829010000e+01 0.0000e+00 -1.0000e+00
       24  1    1    2    0    0 +4.5173004147e+01 -1.5679301911e+02 -8.1325306337e+02 8.3329338595e+02 7.9829010000e+01 0.0000e+00 1.0000e+00
       22  1    1    2    0    0 -6.6900454742e+03 -5.0518185553e+01 +3.9382622163e+03 7.7633220864e+03 0.0000000000e+00 0.0000e+00 -1.0000e+00
       22  1    1    2    0    0 +7.5856281790e+03 +2.1863256546e+01 -5.1451827779e+03 9.1659772360e+03 0.0000000000e+00 0.0000e+00 -1.0000e+00
</event>
<event>
 6      1 +1.4834189e-01 7.01954900e+03 7.81653100e-03 7.15930000e-02
  1000022 -1    0    0    0    0 +0.0000000000e+00 +0.0000000000e+00 +4.4721471353e+01 1.0000100000e+04 1.0000000000e+04 0.0000e+00 1.0000e+00
  1000022 -1    0    0    0    0 -0.0000000000e+00 -0.0000000000e+00 -4.4721471353e+01 1.0000100000e+04 1.0000000000e+04 0.0000e+00 1.0000e+00
      -24  1    1    2    0    0 -6.0187161366e+03 +5.3499804198e+03 +9.8769934502e+02 8.1135169373e+03 7.9829010000e+01 0.0000e+00 1.0000e+00
       24  1    1    2    0    0 +3.5373994726e+01 -5.0098615401e+03 -9.6229933306e+02 5.1021913574e+03 7.9829010000e+01 0.0000e+00 1.0000e+00
       22  1    1    2    0    0 -3.7887529379e+02 +1.1920645148e+02 +7.8500017272e+01 4.0486901466e+02 0.0000000000e+00 0.0000e+00 1.0000e+00
       22  1    1    2    0    0 +6.3622174357e+03 -4.5932533116e+02 -1.0390002923e+02 6.3796226906e+03 0.0000000000e+00 0.0000e+00 1.0000e+00
</event>
<event>
 6      1 +1.4834189e-01 1.00319900e+04 7.81653100e-03 6.93679800e-02
  1000022 -1    0    0    0    0 +0.0000000000e+00 +0.0000000000e+00 +4.4721471353e+01 1.0000100000e+04 1.0000000000e+04 0.0000e+00 -1.0000e+00
  1000022 -1    0    0    0    0 -0.0000000000e+00 -0.0000000000e+00 -4.4721471353e+01 1.0000100000e+04 1.0000000000e+04 0.0000e+00 -1.0000e+00
      -24  1    1    2    0    0 -3.2384627986e+03 -4.7828775539e+03 +7.1483270579e+03 9.1906752413e+03 7.9829010000e+01 0.0000e+00 1.0000e+00
       24  1    1    2    0    0 +3.2168794774e+03 +5.1164749765e+03 -7.8941115216e+03 9.9423336870e+03 7.9829010000e+01 0.0000e+00 1.0000e+00
       22  1    1    2    0    0 +1.2817573567e+01 -3.4579043453e+02 +7.6685917886e+02 8.4131344635e+02 0.0000000000e+00 0.0000e+00 -1.0000e+00
       22  1    1    2    0    0 +8.7657476565e+00 +1.2193011916e+01 -2.1074715235e+01 2.5877625351e+01 0.0000000000e+00 0.0000e+00 -1.0000e+00
</event>
<event>
 6      1 +1.4834189e-01 1.00146900e+04 7.81653100e-03 6.93783900e-02
  1000022 -1    0    0    0    0 +0.0000000000e+00 +0.0000000000e+00 +4.4721471353e+01 1.0000100000e+04 1.0000000000e+04 0.0000e+00 1.0000e+00
  1000022 -1    0    0    0    0 -0.0000000000e+00 -0.0000000000e+00 -4.4721471353e+01 1.0000100000e+04 1.0000000000e+04 0.0000e+00 1.0000e+00
      -24  1    1    2    0    0 +7.4182139793e+03 +6.6490054635e+02 +6.6301568414e+03 9.9718275051e+03 7.9829010000e+01 0.0000e+00 -1.0000e+00
       24  1    1    2    0    0 -7.3442333716e+03 -7.2718944180e+02 -6.6016282919e+03 9.9022440424e+03 7.9829010000e+01 0.0000e+00 -1.0000e+00
       22  1    1    2    0    0 +9.1444871616e-01 +4.2792435391e+01 +2.2032186805e+00 4.2858872076e+01 0.0000000000e+00 0.0000e+00 1.0000e+00
       22  1    1    2    0    0 -7.4895056468e+01 +1.9496460059e+01 -3.0731768195e+01 8.3269580368e+01 0.0000000000e+00 0.0000e+00 1.0000e+00
</event>
<event>
 6      1 +1.4834189e-01 1.06287400e+04 7.81653100e-03 6.90210300e-02
  1000022 -1    0    0    0    0 +0.0000000000e+00 +0.0000000000e+00 +4.4721471353e+01 1.0000100000e+04 1.0000000000e+04 0.0000e+00 -1.0000e+00
  1000022 -1    0    0    0    0 -0.0000000000e+00 -0.0000000000e+00 -4.4721471353e+01 1.0000100000e+04 1.0000000000e+04 0.0000e+00 -1.0000e+00
      -24  1    1    2    0    0 -2.5095544169e+03 +1.5630814534e+03 -7.1492628873e+03 7.7368869388e+03 7.9829010000e+01 0.0000e+00 1.0000e+00
       24  1    1    2    0    0 +2.9124434482e+03 +4.2477397839e+02 +8.8969221324e+03 9.3714649801e+03 7.9829010000e+01 0.0000e+00 1.0000e+00
       22  1    1    2    0    0 -1.7122274588e+02 +9.9719109991e+01 -9.7865396502e+01 2.2099494437e+02 0.0000000000e+00 0.0000e+00 1.0000e+00
       22  1    1    2    0    0 -2.3166628540e+02 -2.0875745417e+03 -1.6497938486e+03 2.6708531367e+03 0.0000000000e+00 0.0000e+00 1.0000e+00
</event>
<event>
 6      1 +1.4834189e-01 1.00161800e+04 7.81653100e-03 6.93775000e-02
  1000022 -1    0    0    0    0 +0.0000000000e+00 +0.0000000000e+00 +4.4721471353e+01 1.0000100000e+04 1.0000000000e+04 0.0000e+00 1.0000e+00
  1000022 -1    0    0    0    0 -0.0000000000e+00 -0.0000000000e+00 -4.4721471353e+01 1.0000100000e+04 1.0000000000e+04 0.0000e+00 1.0000e+00
      -24  1    1    2    0    0 -6.5609039710e+03 +2.5236660299e+03 +7.0894268317e+03 9.9840220663e+03 7.9829010000e+01 0.0000e+00 1.0000e+00
       24  1    1    2    0    0 +2.1040893938e+02 -1.0768154675e+02 -2.2178531688e+02 3.3380927923e+02 7.9829010000e+01 0.0000e+00 0.0000e+00
       22  1    1    2    0    0 +6.3417822592e+03 -2.4432578291e+03 -6.8312175534e+03 9.6360388285e+03 0.0000000000e+00 0.0000e+00 1.0000e+00
       22  1    1    2    0    0 +8.7127724246e+00 +2.7273345920e+01 -3.6423961512e+01 4.6329825957e+01 0.0000000000e+00 0.0000e+00 -1.0000e+00
</event>
<event>
 6      1 +1.4834189e-01 9.63624600e+03 7.81653100e-03 6.96117300e-02
  1000022 -1    0    0    0    0 +0.0000000000e+00 +0.0000000000e+00 +4.4721471353e+01 1.0000100000e+04 1.0000000000e+04 0.0000e+00 -1.0000e+00
  1000022 -1    0    0    0    0 -0.0000000000e+00 -0.0000000000e+00 -4.4721471353e+01 1.0000100000e+04 1.0000000000e+04 0.0000e+00 -1.0000e+00
      -24  1    1    2    0    0 +6.7585275558e+03 +6.1023470251e+03 +3.4313616706e+03 9.7312357654e+03 7.9829010000e+01 0.0000e+00 -1.0000e+00
       24  1    1    2    0    0 -4.3756563100e+02 +3.5333332370e+02 -4.3517625023e+02 7.1558308998e+02 7.9829010000e+01 0.0000e+00 -1.0000e+00
       22  1    1    2    0    0 -6.3356660550e+03 -6.4651308311e+03 -2.9986089331e+03 9.5357347151e+03 0.0000000000e+00 0.0000e+00 -1.0000e+00
       22  1    1    2    0    0 +1.4704130190e+01 +9.4504822431e+00 +2.4235127716e+00 1.7646429481e+01 0.0000000000e+00 0.0000e+00 1.0000e+00
</event>
<event>
 6      1 +1.4834189e-01 1.00473900e+04 7.81653100e-03 6.93587200e-02
  1000022 -1    0    0    0    0 +0.0000000000e+00 +0.0000000000e+00 +4.4721471353e+01 1.0000100000e+04 1.0000000000e+04 0.0000e+00 1.0000e+00
  1000022 -1    0    0    0    0 -0.0000000000e+00 -0.0000000000e+00 -4.4721471353e+01 1.0000100000e+04 1.0000000000e+04 0.0000e+00 1.0000e+00
      -24  1    1    2    0    0 -3.5580736195e+03 +4.5216054490e+03 +8.1207923262e+03 9.9528108791e+03 7.9829010000e+01 0.0000e+00 -1.0000e+00
       24  1    1    2    0    0 +3.5228331543e+03 -4.1483409222e+03 -7.9286907232e+03 9.6171510904e+03 7.9829010000e+01 0.0000e+00 -1.0000e+00
       22  1    1    2    0    0 +1.4087186083e+01 -7.2645992969e+01 -7.9281784775e+01 1.0845040573e+02 0.0000000000e+00 0.0000e+00 -1.0000e+00
       22  1    1    2    0    0 +2.1153279092e+01 -3.0061853386e+02 -1.1281981818e+02 3.2178762483e+02 0.0000000000e+00 0.0000e+00 -1.0000e+00
</event>
<event>
 6      1 +1.4834189e-01 1.00098200e+04 7.81653100e-03 6.93813300e-02
  1000022 -1    0    0    0    0 +0.0000000000e+00 +0.0000000000e+00 +4.4721471353e+01 1.0000100000e+04 1.0000000000e+04 0.0000e+00 -1.0000e+00
  1000022 -1    0    0    0    0 -0.0000000000e+00 -0.0000000000e+00 -4.4721471353e+01 1.0000100000e+04 1.0000000000e+04 0.0000e+00 -1.0000e+00
      -24  1    1    2    0    0 -3.8606494558e+03 +9.2139361944e+03 +1.8608089680e+00 9.9903758963e+03 7.9829010000e+01 0.0000e+00 1.0000e+00
       24  1    1    2    0    0 +3.7610849234e+03 -8.9483758104e+03 -3.9764998309e+01 9.7070666718e+03 7.9829010000e+01 0.0000e+00 1.0000e+00
       22  1    1    2    0    0 +1.0700876774e+02 -2.3933539470e+02 +7.9974686077e+00 2.6229042497e+02 0.0000000000e+00 0.0000e+00 1.0000e+00
       22  1    1    2    0    0 -7.4442353410e+00 -2.6224989367e+01 +2.9906720733e+01 4.0467006958e+01 0.0000000000e+00 0.0000e+00 -1.0000e+00
</event>
<event>
 6      1 +1.4834189e-01 1.01245800e+04 7.81653100e-03 6.93125700e-02
  1000022 -1    0    0    0    0 +0.0000000000e+00 +0.0000000000e+00 +4.4721471353e+01 1.0000100000e+04 1.0000000000e+04 0.0000e+00 1.0000e+00
  1000022 -1    0    0    0    0 -0.0000000000e+00 -0.0000000000e+00 -4.4721471353e+01 1.0000100000e+04 1.0000000000e+04 0.0000e+00 1.0000e+00
      -24  1    1    2    0    0 +5.4628177770e+03 +7.0781350738e+02 +6.7893191374e+03 8.7432605501e+03 7.9829010000e+01 0.0000e+00 -1.0000e+00
       24  1    1    2    0    0 -3.2334359848e+02 -2.4832312305e+02 -2.4046101849e+02 4.8001002945e+02 7.9829010000e+01 0.0000e+00 -1.0000e+00
       22  1    1    2    0    0 +1.1905694537e+03 +6.2882353115e+02 +3.0851245462e+02 1.3813234929e+03 0.0000000000e+00 0.0000e+00 1.0000e+00
       22  1    1    2    0    0 -6.3300436322e+03 -1.0883139155e+03 -6.8573705735e+03 9.3956059276e+03 0.0000000000e+00 0.0000e+00 -1.0000e+00
</event>
<event>
 6      1 +1.4834189e-01 1.01226300e+04 7.81653100e-03 6.93137400e-02
  1000022 -1    0    0    0    0 +0.0000000000e+00 +0.0000000000e+00 +4.4721471353e+01 1.0000100000e+04 1.0000000000e+04 0.0000e+00 1.0000e+00
  1000022 -1    0    0    0    0 -0.0000000000e+00 -0.0000000000e+00 -4.4721471353e+01 1.0000100000e+04 1.0000000000e+04 0.0000e+00 1.0000e+00
      -24  1    1    2    0    0 +5.9943027229e+03 -3.1187395047e+03 -6.1620380943e+03 9.1452330412e+03 7.9829010000e+01 0.0000e+00 1.0000e+00
       24  1    1    2    0    0 -6.1908766307e+03 +3.9700325154e+03 +6.5528165548e+03 9.8505781100e+03 7.9829010000e+01 0.0000e+00 1.0000e+00
       22  1    1    2    0    0 +2.1348613917e+02 -8.6159931406e+02 -4.0911652855e+02 9.7739758724e+02 0.0000000000e+00 0.0000e+00 1.0000e+00
       22  1    1    2    0    0 -1.6912231402e+01 +1.0306303318e+01 +1.8338068091e+01 2.6991261556e+01 0.0000000000e+00 0.0000e+00 1.0000e+00
</event>
<event>
 6      1 +1.4834189e-01 1.06093100e+04 7.81653100e-03 6.90319600e-02
  1000022 -1    0    0    0    0 +0.0000000000e+00 +0.0000000000e+00 +4.4721471353e+01 1.0000100000e+04 1.0000000000e+04 0.0000e+00 1.0000e+00
  1000022 -1    0    0    0    0 -0.0000000000e+00 -0.0000000000e+00 -4.4721471353e+01 1.0000100000e+04 1.0000000000e+04 0.0000e+00 1.0000e+00
      -24  1    1    2    0    0 -3.5158148787e+02 -5.5797698690e+02 +4.0312600359e+03 4.0856306745e+03 7.9829010000e+01 0.0000e+00 -1.0000e+00
       24  1    1    2    0    0 +2.7897587617e+03 +5.4324330137e+03 -6.0108498553e+03 8.5691756342e+03 7.9829010000e+01 0.0000e+00 -1.0000e+00
       22  1    1    2    0    0 +2.1282702160e+02 +4.8588930378e+02 -6.2756194234e+02 8.2171634286e+02 0.0000000000e+00 0.0000e+00 1.0000e+00
       22  1    1    2    0    0 -2.6510042954e+03 -5.3603453306e+03 +2.6071517617e+03 6.5236773484e+03 0.0000000000e+00 0.0000e+00 -1.0000e+00
</event>
<event>
 6      1 +1.4834189e-01 1.00328600e+04 7.81653100e-03 6.93674500e-02
  1000022 -1    0    0    0    0 +0.0000000000e+00 +0.0000000000e+00 +4.4721471353e+01 1.0000100000e+04 1.0000000000e+04 0.0000e+00 -1.0000e+00
  1000022 -1    0    0    0    0 -0.0000000000e+00 -0.0000000000e+00 -4.4721471353e+01 1.0000100000e+04 1.0000000000e+04 0.0000e+00 -1.0000e+00
      -24  1    1    2    0    0 -1.3794308097e+03 -9.0439111982e+03 +3.9259860050e+03 9.9556465336e+03 7.9829010000e+01 0.0000e+00 1.0000e+00
       24  1    1    2    0    0 +1.1634909569e+03 +6.8760054483e+03 -3.4929788942e+03 7.8000279716e+03 7.9829010000e+01 0.0000e+00 1.0000e+00
       22  1    1    2    0    0 +2.1762274387e+02 +2.1788810517e+03 -4.3666198861e+02 2.2328358624e+03 0.0000000000e+00 0.0000e+00 1.0000e+00
       22  1    1    2    0    0 -1.6828909865e+00 -1.0975301836e+01 +3.6548778783e+00 1.1689632363e+01 0.0000000000e+00 0.0000e+00 -1.0000e+00
</event>
<event>
 6      1 +1.4834189e-01 1.00081800e+04 7.81653100e-03 6.93823200e-02
  1000022 -1    0    0    0    0 +0.0000000000e+00 +0.0000000000e+00 +4.4721471353e+01 1.0000100000e+04 1.0000000000e+04 0.0000e+00 -1.0000e+00
  1000022 -1    0    0    0    0 -0.0000000000e+00 -0.0000000000e+00 -4.4721471353e+01 1.0000100000e+04 1.0000000000e+04 0.0000e+00 -1.0000e+00
      -24  1    1    2    0    0 -3.1987683090e+03 -8.6462656198e+03 -2.9840261527e+03 9.6902431659e+03 7.9829010000e+01 0.0000e+00 1.0000e+00
       24  1    1    2    0    0 +3.3217305705e+03 +8.7639502547e+03 +3.0748155176e+03 9.8641563850e+03 7.9829010000e+01 0.0000e+00 1.0000e+00
       22  1    1    2    0    0 -1.0221264765e+02 -2.5705253506e+02 -1.2060497604e+02 3.0177639299e+02 0.0000000000e+00 0.0000e+00 1.0000e+00
       22  1    1    2    0    0 -2.0749613919e+01 +1.3936790019e+02 +2.9815611098e+01 1.4402405614e+02 0.0000000000e+00 0.0000e+00 -1.0000e+00
</event>
<event>
 6      1 +1.4834189e-01 1.00001000e+04 7.81653100e-03 6.93871900e-02
  1000022 -1    0    0    0    0 +0.0000000000e+00 +0.0000000000e+00 +4.4721471353e+01 1.0000100000e+04 1.0000000000e+04 0.0000e+00 -1.0000e+00
  1000022 -1    0    0    0    0 -0.0000000000e+00 -0.0000000000e+00 -4.4721471353e+01 1.0000100000e+04 1.0000000000e+04 0.0000e+00 -1.0000e+00
      -24  1    1    2    0    0 -9.2397165763e+03 +2.4593927840e+02 +3.7619713909e+03 9.9795616114e+03 7.9829010000e+01 0.0000e+00 1.0000e+00
       24  1    1    2    0    0 +9.2465869468e+03 -2.4695165482e+02 -3.7647730447e+03 9.9870037566e+03 7.9829010000e+01 0.0000e+00 1.0000e+00
       22  1    1    2    0    0 +1.1716643729e+01 -1.5271100176e-01 -5.8533053251e+00 1.3098253477e+01 0.0000000000e+00 0.0000e+00 -1.0000e+00
       22  1    1    2    0    0 -1.8587014251e+01 +1.1650874142e+00 +8.6549591041e+00 2.0536378564e+01 0.0000000000e+00 0.0000e+00 -1.0000e+00
</event>
<event>
 6      1 +1.4834189e-01 1.00452400e+04 7.81653100e-03 6.93600100e-02
  1000022 -1    0    0    0    0 +0.0000000000e+00 +0.0000000000e+00 +4.4721471353e+01 1.0000100000e+04 1.0000000000e+04 0.0000e+00 1.0000e+00
  1000022 -1    0    0    0    0 -0.0000000000e+00 -0.0000000000e+00 -4.4721471353e+01 1.0000100000e+04 1.0000000000e+04 0.0000e+00 1.0000e+00
      -24  1    1    2    0    0 +6.4182576119e+03 -5.1177432517e+03 +1.9592419793e+02 8.2115824130e+03 7.9829010000e+01 0.0000e+00 1.0000e+00
       24  1    1    2    0    0 -6.5838039845e+02 +1.0276592074e+03 -2.0514658235e+02 1.2401636935e+03 7.9829010000e+01 0.0000e+00 -1.0000e+00
       22  1    1    2    0    0 +1.3975726212e+03 -1.0375295970e+03 +9.8345734177e+01 1.7433728171e+03 0.0000000000e+00 0.0000e+00 -1.0000e+00
       22  1    1    2    0    0 -7.1574498346e+03 +5.1276136413e+03 -8.9123349760e+01 8.8050810764e+03 0.0000000000e+00 0.0000e+00 1.0000e+00
</event>
<event>
 6      1 +1.4834189e-01 1.02554800e+04 7.81653100e-03 6.92352700e-02
  1000022 -1    0    0    0    0 +0.0000000000e+00 +0.0000000000e+00 +4.4721471353e+01 1.0000100000e+04 1.0000000000e+04 0.0000e+00 1.0000e+00
  1000022 -1    0    0    0    0 -0.0000000000e+00 -0.0000000000e+00 -4.4721471353e+01 1.0000100000e+04 1.0000000000e+04 0.0000e+00 1.0000e+00
      -24  1    1    2    0    0 -5.4570315480e+03 +4.7707849190e+02 -6.4520494837e+02 5.5162903568e+03 7.9829010000e+01 0.0000e+00 1.0000e+00
       24  1    1    2    0    0 +8.4300062970e+03 -3.6814818955e+03 -4.6117904782e+02 9.2107205961e+03 7.9829010000e+01 0.0000e+00 1.0000e+00
       22  1    1    2    0    0 +4.4316439552e+02 +9.4441510215e+02 +5.6579551331e+01 1.0447563411e+03 0.0000000000e+00 0.0000e+00 1.0000e+00
       22  1    1    2    0    0 -3.4161391445e+03 +2.2599883014e+03 +1.0498044449e+03 4.2284327060e+03 0.0000000000e+00 0.0000e+00 1.0000e+00
</event>
<event>
 6      1 +1.4834189e-01 1.00062400e+04 7.81653100e-03 6.93834900e-02
  1000022 -1    0    0    0    0 +0.0000000000e+00 +0.0000000000e+00 +4.4721471353e+01 1.0000100000e+04 1.0000000000e+04 0.0000e+00 1.0000e+00
  1000022 -1    0    0    0    0 -0.0000000000e+00 -0.0000000000e+00 -4.4721471353e+01 1.0000100000e+04 1.0000000000e+04 0.0000e+00 1.0000e+00
      -24  1    1    2    0    0 -7.9246503238e+03 +1.6060678992e+03 -5.8731021865e+03 9.9939601168e+03 7.9829010000e+01 0.0000e+00 -1.0000e+00
       24  1    1    2    0    0 +7.2446520409e+03 -1.4926883854e+03 +5.4461779902e+03 9.1858766147e+03 7.9829010000e+01 0.0000e+00 -1.0000e+00
       22  1    1    2    0    0 +6.4715666829e+01 +5.4571436411e+00 +5.4834228428e+00 6.5176421166e+01 0.0000000000e+00 0.0000e+00 -1.0000e+00
       22  1    1    2    0    0 +6.1528261609e+02 -1.1883665745e+02 +4.2144077347e+02 7.5518684731e+02 0.0000000000e+00 0.0000e+00 -1.0000e+00
</event>
<event>
 6      1 +1.4834189e-01 1.00424400e+04 7.81653100e-03 6.93616900e-02
  1000022 -1    0    0    0    0 +0.0000000000e+00 +0.0000000000e+00 +4.4721471353e+01 1.0000100000e+04 1.0000000000e+04 0.0000e+00 -1.0000e+00
  1000022 -1    0    0    0    0 -0.0000000000e+00 -0.0000000000e+00 -4.4721471353e+01 1.0000100000e+04 1.0000000000e+04 0.0000e+00 -1.0000e+00
      -24  1    1    2    0    0 +4.7278640450e+03 -7.0704494810e+03 +2.3919282620e+03 8.8358161917e+03 7.9829010000e+01 0.0000e+00 -1.0000e+00
       24  1    1    2    0    0 -4.9391229974e+03 +7.6320118343e+03 -2.8041396816e+03 9.5137854005e+03 7.9829010000e+01 0.0000e+00 -1.0000e+00
       22  1    1    2    0    0 +6.0988064726e+02 -8.9140010361e+02 +3.0366088421e+02 1.1219440633e+03 0.0000000000e+00 0.0000e+00 -1.0000e+00
       22  1    1    2    0    0 -3.9862169492e+02 +3.2983775033e+02 +1.0855053535e+02 5.2865434447e+02 0.0000000000e+00 0.0000e+00 1.0000e+00
</event>
<event>
 6      1 +1.4834189e-01 1.00056400e+04 7.81653100e-03 6.93838500e-02
  1000022 -1    0    0    0    0 +0.0000000000e+00 +0.0000000000e+00 +4.4721471353e+01 1.0000100000e+04 1.0000000000e+04 0.0000e+00 -1.0000e+00
  1000022 -1    0    0    0    0 -0.0000000000e+00 -0.0000000000e+00 -4.4721471353e+01 1.0000100000e+04 1.0000000000e+04 0.0000e+00 -1.0000e+00
      -24  1    1    2    0    0 -3.1129529616e+03 -3.4072129397e+03 -8.8648352722e+03 9.9945611826e+03 7.9829010000e+01 0.0000e+00 1.0000e+00
       24  1    1    2    0    0 +1.4849436232e+02 +1.8813603905e+02 +3.9538878272e+02 4.6920220073e+02 7.9829010000e+01 0.0000e+00 1.0000e+00
       22  1    1    2    0    0 +2.9679248772e+03 +3.2095149067e+03 +8.4594415409e+03 9.5221696686e+03 0.0000000000e+00 0.0000e+00 1.0000e+00
       22  1    1    2    0    0 -3.4662779947e+00 +9.5619939765e+00 +1.0004948608e+01 1.4266948118e+01 0.0000000000e+00 0.0000e+00 -1.0000e+00
</event>
<event>
 6      1 +1.4834189e-01 1.00001200e+04 7.81653100e-03 6.93871800e-02
  1000022 -1    0    0    0    0 +0.0000000000e+00 +0.0000000000e+00 +4.4721471353e+01 1.0000100000e+04 1.0000000000e+04 0.0000e+00 1.0000e+00
  1000022 -1    0    0    0    0 -0.0000000000e+00 -0.0000000000e+00 -4.4721471353e+01 1.0000100000e+04 1.0000000000e+04 0.0000e+00 1.0000e+00
      -24  1    1    2    0    0 +3.9862614632e+03 +7.5542107606e+03 -8.4571838690e+02 8.5835885811e+03 7.9829010000e+01 0.0000e+00 -1.0000e+00
       24  1    1    2    0    0 -4.5924152508e+03 -8.7360607938e+03 +9.5346382612e+02 9.9158712157e+03 7.9829010000e+01 0.0000e+00 -1.0000e+00
       22  1    1    2    0    0 +6.4169413250e+02 +1.2570462595e+03 -1.2092337516e+02 1.4165306636e+03 0.0000000000e+00 0.0000e+00 1.0000e+00
       22  1    1    2    0    0 -3.5540344925e+01 -7.5196226281e+01 +1.3177935938e+01 8.4209539601e+01 0.0000000000e+00 0.0000e+00 -1.0000e+00
</event>
<event>
 6      1 +1.4834189e-01 1.00117000e+04 7.81653100e-03 6.93801900e-02
  1000022 -1    0    0    0    0 +0.0000000000e+00 +0.0000000000e+00 +4.4721471353e+01 1.0000100000e+04 1.0000000000e+04 0.0000e+00 1.0000e+00
  1000022 -1    0    0    0    0 -0.0000000000e+00 -0.0000000000e+00 -4.4721471353e+01 1.0000100000e+04 1.0000000000e+04 0.0000e+00 1.0000e+00
      -24  1    1    2    0    0 -5.7612950524e+03 -5.6527266039e+03 +5.5003702131e+03 9.7676140327e+03 7.9829010000e+01 0.0000e+00 -1.0000e+00
       24  1    1    2    0    0 +5.8991967207e+03 +5.7095469871e+03 -5.6889621450e+03 9.9884989716e+03 7.9829010000e+01 0.0000e+00 -1.0000e+00
       22  1    1    2    0    0 -1.1342516159e+02 -3.6672286967e+01 +1.2328219069e+02 1.7148942374e+02 0.0000000000e+00 0.0000e+00 1.0000e+00
       22  1    1    2    0    0 -2.4476506653e+01 -2.0148096178e+01 +6.5309741260e+01 7.2597572005e+01 0.0000000000e+00 0.0000e+00 -1.0000e+00
</event>
<event>
 6      1 +1.4834189e-01 1.14740000e+04 7.81653100e-03 6.85669400e-02
  1000022 -1    0    0    0    0 +0.0000000000e+00 +0.0000000000e+00 +4.4721471353e+01 1.0000100000e+04 1.0000000000e+04 0.0000e+00 1.0000e+00
  1000022 -1    0    0    0    0 -0.0000000000e+00 -0.0000000000e+00 -4.4721471353e+01 1.0000100000e+04 1.0000000000e+04 0.0000e+00 1.0000e+00
      -24  1    1    2    0    0 +3.5639016819e+03 +7.7147912832e+03 -6.8578523220e+02 8.5261992586e+03 7.9829010000e+01 0.0000e+00 -1.0000e+00
       24  1    1    2    0    0 -1.7530843376e+03 -8.1225088167e+03 -1.4968441591e+03 8.4436585246e+03 7.9829010000e+01 0.0000e+00 -1.0000e+00
       22  1    1    2    0    0 -1.7074586930e+03 +4.0233133108e+02 +2.2877009417e+03 2.8828564458e+03 0.0000000000e+00 0.0000e+00 -1.0000e+00
       22  1    1    2    0    0 -1.0335865129e+02 +5.3862024471e+00 -1.0507155043e+02 1.4748577112e+02 0.0000000000e+00 0.0000e+00 -1.0000e+00
</event>
<event>
 6      1 +1.4834189e-01 1.03429900e+04 7.81653100e-03 6.91842200e-02
  1000022 -1    0    0    0    0 +0.0000000000e+00 +0.0000000000e+00 +4.4721471353e+01 1.0000100000e+04 1.0000000000e+04 0.0000e+00 -1.0000e+00
  1000022 -1    0    0    0    0 -0.0000000000e+00 -0.0000000000e+00 -4.4721471353e+01 1.0000100000e+04 1.0000000000e+04 0.0000e+00 -1.0000e+00
      -24  1    1    2    0    0 +2.2049515818e+03 -4.4619139452e+03 +1.6577197216e+03 5.2464173374e+03 7.9829010000e+01 0.0000e+00 -1.0000e+00
       24  1    1    2    0    0 -4.2849574382e+03 +7.0496664582e+03 -4.4420816257e+03 9.3700117001e+03 7.9829010000e+01 0.0000e+00 -1.0000e+00
       22  1    1    2    0    0 +1.8153432037e+03 -3.3435271544e+03 +2.2316864629e+03 4.4107900934e+03 0.0000000000e+00 0.0000e+00 -1.0000e+00
       22  1    1    2    0    0 +2.6466265270e+02 +7.5577464138e+02 +5.5267544121e+02 9.7298086908e+02 0.0000000000e+00 0.0000e+00 -1.0000e+00
</event>
<event>
 6      1 +1.4834189e-01 1.02133400e+04 7.81653100e-03 6.92600300e-02
  1000022 -1    0    0    0    0 +0.0000000000e+00 +0.0000000000e+00 +4.4721471353e+01 1.0000100000e+04 1.0000000000e+04 0.0000e+00 1.0000e+00
  1000022 -1    0    0    0    0 -0.0000000000e+00 -0.0000000000e+00 -4.4721471353e+01 1.0000100000e+04 1.0000000000e+04 0.0000e+00 1.0000e+00
      -24  1    1    2    0    0 +2.0887423827e+03 -1.7216710299e+03 +2.2781175331e+03 3.5388116709e+03 7.9829010000e+01 0.0000e+00 -1.0000e+00
       24  1    1    2    0    0 -5.5417587942e+03 +1.2515863376e+03 -7.9686113843e+03 9.7868635915e+03 7.9829010000e+01 0.0000e+00 -1.0000e+00
       22  1    1    2    0    0 +1.0229832073e+01 -4.1869046728e+00 +8.3266766219e+00 1.3838828655e+01 0.0000000000e+00 0.0000e+00 -1.0000e+00
       22  1    1    2    0    0 +3.4427865794e+03 +4.7427159692e+02 +5.6821671745e+03 6.6606859090e+03 0.0000000000e+00 0.0000e+00 -1.0000e+00
</event>
<event>
 6      1 +1.4834189e-01 1.05393700e+04 7.81653100e-03 6.90715100e-02
  1000022 -1    0    0    0    0 +0.0000000000e+00 +0.0000000000e+00 +4.4721471353e+01 1.0000100000e+04 1.0000000000e+04 0.0000e+00 -1.0000e+00
  1000022 -1    0    0    0    0 -0.0000000000e+00 -0.0000000000e+00 -4.4721471353e+01 1.0000100000e+04 1.0000000000e+04 0.0000e+00 -1.0000e+00
      -24  1    1    2    0    0 -4.9718275544e+03 +2.2875777586e+03 -1.0358575796e+03 5.5705883736e+03 7.9829010000e+01 0.0000e+00 1.0000e+00
       24  1    1    2    0    0 +8.4601743817e+03 -3.6181587036e+03 -2.1989303419e+03 9.4608292603e+03 7.9829010000e+01 0.0000e+00 1.0000e+00
       22  1    1    2    0    0 -3.4383605798e+03 +1.3058233187e+03 +3.2529587879e+03 4.9101159755e+03 0.0000000000e+00 0.0000e+00 1.0000e+00
       22  1    1    2    0    0 -4.9986247460e+01 +2.4757626330e+01 -1.8170866422e+01 5.8666390575e+01 0.0000000000e+00 0.0000e+00 1.0000e+00
</event>
<event>
 6      1 +1.4834189e-01 1.00087200e+04 7.81653100e-03 6.93819900e-02
  1000022 -1    0    0    0    0 +0.0000000000e+00 +0.0000000000e+00 +4.4721471353e+01 1.0000100000e+04 1.0000000000e+04 0.0000e+00 -1.0000e+00
  1000022 -1    0    0    0    0 -0.0000000000e+00 -0.0000000000e+00 -4.4721471353e+01 1.0000100000e+04 1.0000000000e+04 0.0000e+00 -1.0000e+00
      -24  1    1    2    0    0 +4.1311066889e+02 -6.6556267821e+01 -1.3496877699e+02 4.4685501355e+02 7.9829010000e+01 0.0000e+00 0.0000e+00
       24  1    1    2    0    0 -7.2416316186e+03 +2.6535364693e+03 +3.7350547402e+03 8.5696844094e+03 7.9829010000e+01 0.0000e+00 1.0000e+00
       22  1    1    2    0    0 -1.2071386524e+03 +3.8922862680e+02 +6.4251021483e+02 1.4217953531e+03 0.0000000000e+00 0.0000e+00 1.0000e+00
       22  1    1    2    0    0 +8.0356596021e+03 -2.9762088283e+03 -4.2425961780e+03 9.5618652239e+03 0.0000000000e+00 0.0000e+00 1.0000e+00
</event>
<event>
 6      1 +1.4834189e-01 1.00404400e+04 7.81653100e-03 6.93629000e-02
  1000022 -1    0    0    0    0 +0.0000000000e+00 +0.0000000000e+00 +4.4721471353e+01 1.0000100000e+04 1.0000000000e+04 0.0000e+00 1.0000e+00
  1000022 -1    0    0    0    0 -0.0000000000e+00 -0.0000000000e+00 -4.4721471353e+01 1.0000100000e+04 1.0000000000e+04 0.0000e+00 1.0000e+00
      -24  1    1    2    0    0 -1.2110448507e+01 -1.6456803761e+02 +2.9431064673e+02 3.4672861085e+02 7.9829010000e+01 0.0000e+00 1.0000e+00
       24  1    1    2    0    0 +1.2993948536e+02 +5.1317215714e+03 -5.4502386524e+03 7.4875179195e+03 7.9829010000e+01 0.0000e+00 1.0000e+00
       22  1    1    2    0    0 +3.8180088619e+02 -7.0950479254e+03 +6.4749509463e+03 9.6130362913e+03 0.0000000000e+00 0.0000e+00 1.0000e+00
       22  1    1    2    0    0 -4.9962992304e+02 +2.1278943916e+03 -1.3190229406e+03 2.5529171784e+03 0.0000000000e+00 0.0000e+00 1.0000e+00
</event>
<event>
 6      1 +1.4834189e-01 1.00101700e+04 7.81653100e-03 6.93811200e-02
  1000022 -1    0    0    0    0 +0.0000000000e+00 +0.0000000000e+00 +4.4721471353e+01 1.0000100000e+04 1.0000000000e+04 0.0000e+00 -1.0000e+00
  1000022 -1    0    0    0    0 -0.0000000000e+00 -0.0000000000e+00 -4.4721471353e+01 1.0000100000e+04 1.0000000000e+04 0.0000e+00 -1.0000e+00
      -24  1    1    2    0    0 -3.0189553914e+02 -8.3487812542e+03 -3.5857762678e+02 8.3623106814e+03 7.9829010000e+01 0.0000e+00 1.0000e+00
       24  1    1    2    0    0 +1.8014984536e+02 +9.9772385551e+03 +4.6536759794e+02 9.9900291704e+03 7.9829010000e+01 0.0000e+00 1.0000e+00
       22  1    1    2    0    0 +1.4115955477e+02 -1.5666664318e+03 -7.2758071597e+01 1.5746947213e+03 0.0000000000e+00 0.0000e+00 1.0000e+00
       22  1    1    2    0    0 -1.9413860982e+01 -6.1790869183e+01 -3.4031899555e+01 7.3165426945e+01 0.0000000000e+00 0.0000e+00 -1.0000e+00
</event>
<event>
 6      1 +1.4834189e-01 1.00007200e+04 7.81653100e-03 6.93868200e-02
  1000022 -1    0    0    0    0 +0.0000000000e+00 +0.0000000000e+00 +4.4721471353e+01 1.0000100000e+04 1.0000000000e+04 0.0000e+00 -1.0000e+00
  1000022 -1    0    0    0    0 -0.0000000000e+00 -0.0000000000e+00 -4.4721471353e+01 1.0000100000e+04 1.0000000000e+04 0.0000e+00 -1.0000e+00
      -24  1    1    2    0    0 +4.1064611668e+03 +1.7549375865e+03 -8.8570799416e+03 9.9195295760e+03 7.9829010000e+01 0.0000e+00 1.0000e+00
       24  1    1    2    0    0 -4.1281572250e+03 -1.7783461014e+03 +8.9069907167e+03 9.9772267304e+03 7.9829010000e+01 0.0000e+00 1.0000e+00
       22  1    1    2    0    0 -9.3863494916e+00 -4.7319917189e+00 +1.9614708622e+01 2.2253810836e+01 0.0000000000e+00 0.0000e+00 -1.0000e+00
       22  1    1    2    0    0 +3.1082407676e+01 +2.8140506614e+01 -6.9525483701e+01 8.1189882764e+01 0.0000000000e+00 0.0000e+00 -1.0000e+00
</event>
<event>
 6      1 +1.4834189e-01 1.02448800e+04 7.81653100e-03 6.92414800e-02
  1000022 -1    0    0    0    0 +0.0000000000e+00 +0.0000000000e+00 +4.4721471353e+01 1.0000100000e+04 1.0000000000e+04 0.0000e+00 1.0000e+00
  1000022 -1    0    0    0    0 -0.0000000000e+00 -0.0000000000e+00 -4.4721471353e+01 1.0000100000e+04 1.0000000000e+04 0.0000e+00 1.0000e+00
      -24  1    1    2    0    0 +1.4822835329e+03 -5.5679337445e+03 -7.6776597683e+03 9.5995772221e+03 7.9829010000e+01 0.0000e+00 -1.0000e+00
       24  1    1    2    0    0 -9.6824284481e+02 +5.9677677395e+03 +7.6029008537e+03 9.7140218273e+03 7.9829010000e+01 0.0000e+00 -1.0000e+00
       22  1    1    2    0    0 -4.9303245325e+02 -4.1418583121e+02 +4.2227029280e+01 6.4530149910e+02 0.0000000000e+00 0.0000e+00 -1.0000e+00
       22  1    1    2    0    0 -2.1008234806e+01 +1.4351836238e+01 +3.2531885291e+01 4.1299451494e+01 0.0000000000e+00 0.0000e+00 -1.0000e+00
</event>
<event>
 6      1 +1.4834189e-01 1.00532000e+04 7.81653100e-03 6.93552300e-02
  1000022 -1    0    0    0    0 +0.0000000000e+00 +0.0000000000e+00 +4.4721471353e+01 1.0000100000e+04 1.0000000000e+04 0.0000e+00 1.0000e+00
  1000022 -1    0    0    0    0 -0.0000000000e+00 -0.0000000000e+00 -4.4721471353e+01 1.0000100000e+04 1.0000000000e+04 0.0000e+00 1.0000e+00
      -24  1    1    2    0    0 +1.8613542036e+02 +8.9923784259e+03 -4.0823844365e+03 9.8777402025e+03 7.9829010000e+01 0.0000e+00 1.0000e+00
       24  1    1    2    0    0 -4.4431920448e+02 -2.8027444605e+03 +2.0690312553e+03 3.5128420221e+03 7.9829010000e+01 0.0000e+00 1.0000e+00
       22  1    1    2    0    0 +2.7842074272e+02 -6.1947448712e+03 +2.0793945435e+03 6.5403565497e+03 0.0000000000e+00 0.0000e+00 1.0000e+00
       22  1    1    2    0    0 -2.0236958601e+01 +5.1109057947e+00 -6.6041362342e+01 6.9261225743e+01 0.0000000000e+00 0.0000e+00 -1.0000e+00
</event>
<event>
 6      1 +1.4834189e-01 1.00016100e+04 7.81653100e-03 6.93862900e-02
  1000022 -1    0    0    0    0 +0.0000000000e+00 +0.0000000000e+00 +4.4721471353e+01 1.0000100000e+04 1.0000000000e+04 0.0000e+00 -1.0000e+00
  1000022 -1    0    0    0    0 -0.0000000000e+00 -0.0000000000e+00 -4.4721471353e+01 1.0000100000e+04 1.0000000000e+04 0.0000e+00 -1.0000e+00
      -24  1    1    2    0    0 -3.2360251387e+03 -3.5437534702e+03 -7.6351878904e+02 4.8599774658e+03 7.9829010000e+01 0.0000e+00 1.0000e+00
       24  1    1    2    0    0 +6.4429049600e+03 +7.1074566296e+03 +1.4429934151e+03 9.7013177833e+03 7.9829010000e+01 0.0000e+00 1.0000e+00
       22  1    1    2    0    0 -3.3667214826e+03 -3.8126399889e+03 -7.3099031925e+02 5.1386169417e+03 0.0000000000e+00 0.0000e+00 1.0000e+00
       22  1    1    2    0    0 +1.5984166122e+02 +2.4893682948e+02 +5.1515693239e+01 3.0028780925e+02 0.0000000000e+00 0.0000e+00 -1.0000e+00
</event>
<event>
 6      1 +1.4834189e-01 1.00107200e+04 7.81653100e-03 6.93807900e-02
  1000022 -1    0    0    0    0 +0.0000000000e+00 +0.0000000000e+00 +4.4721471353e+01 1.0000100000e+04 1.0000000000e+04 0.0000e+00 -1.0000e+00
  1000022 -1    0    0    0    0 -0.0000000000e+00 -0.0000000000e+00 -4.4721471353e+01 1.0000100000e+04 1.0000000000e+04 0.0000e+00 -1.0000e+00
      -24  1    1    2    0    0 -8.8196678796e+03 -3.4222780801e+03 -3.0638832138e+03 9.9444598538e+03 7.9829010000e+01 0.0000e+00 -1.0000e+00
       24  1    1    2    0    0 +5.0467083406e+02 +1.0873684505e+02 +2.7520108235e+02 5.9044445868e+02 7.9829010000e+01 0.0000e+00 0.0000e+00
       22  1    1    2    0    0 -3.9946452938e+01 -1.6149523409e+01 -1.3046724393e+01 4.5019365011e+01 0.0000000000e+00 0.0000e+00 1.0000e+00
       22  1    1    2    0    0 +8.3549434985e+03 +3.3296907585e+03 +2.8017288559e+03 9.4202763225e+03 0.0000000000e+00 0.0000e+00 -1.0000e+00
</event>
<event>
 6      1 +1.4834189e-01 1.00759500e+04 7.81653100e-03 6.93416000e-02
  1000022 -1    0    0    0    0 +0.0000000000e+00 +0.0000000000e+00 +4.4721471353e+01 1.0000100000e+04 1.0000000000e+04 0.0000e+00 1.0000e+00
  1000022 -1    0    0    0    0 -0.0000000000e+00 -0.0000000000e+00 -4.4721471353e+01 1.0000100000e+04 1.0000000000e+04 0.0000e+00 1.0000e+00
      -24  1    1    2    0    0 -6.3186471725e+03 -2.8061733296e+03 +7.1193066964e+03 9.9242536925e+03 7.9829010000e+01 0.0000e+00 1.0000e+00
       24  1    1    2    0    0 +6.1899004531e+03 +2.9897102687e+03 -6.9601344562e+03 9.7827950724e+03 7.9829010000e+01 0.0000e+00 1.0000e+00
       22  1    1    2    0    0 +1.1890630884e+02 -1.9587638554e+02 -1.4085704379e+02 2.6897393086e+02 0.0000000000e+00 0.0000e+00 1.0000e+00
       22  1    1    2    0    0 +9.8404105522e+00 +1.2339446465e+01 -1.8315196365e+01 2.4177304167e+01 0.0000000000e+00 0.0000e+00 1.0000e+00
</event>
<event>
 6      1 +1.4834189e-01 1.00415400e+04 7.81653100e-03 6.93622300e-02
  1000022 -1    0    0    0    0 +0.0000000000e+00 +0.0000000000e+00 +4.4721471353e+01 1.0000100000e+04 1.0000000000e+04 0.0000e+00 -1.0000e+00
  1000022 -1    0    0    0    0 -0.0000000000e+00 -0.0000000000e+00 -4.4721471353e+01 1.0000100000e+04 1.0000000000e+04 0.0000e+00 -1.0000e+00
      -24  1    1    2    0    0 +6.8129639829e+03 +3.6977898192e+03 +6.2490087322e+03 9.9572391046e+03 7.9829010000e+01 0.0000e+00 1.0000e+00
       24  1    1    2    0    0 -6.4786985882e+03 -3.5175919048e+03 -5.8013506281e+03 9.3813128072e+03 7.9829010000e+01 0.0000e+00 1.0000e+00
       22  1    1    2    0    0 -3.7637343397e+02 -2.1308443394e+02 -3.8245476572e+02 5.7735048766e+02 0.0000000000e+00 0.0000e+00 -1.0000e+00
       22  1    1    2    0    0 +4.2108039198e+01 +3.2886519552e+01 -6.5203338320e+01 8.4297600568e+01 0.0000000000e+00 0.0000e+00 -1.0000e+00
</event>
<event>
 6      1 +1.4834189e-01 7.08161800e+03 7.81653100e-03 7.15364000e-02
  1000022 -1    0    0    0    0 +0.0000000000e+00 +0.0000000000e+00 +4.4721471353e+01 1.0000100000e+04 1.0000000000e+04 0.0000e+00 1.0000e+00
  1000022 -1    0    0    0    0 -0.0000000000e+00 -0.0000000000e+00 -4.4721471353e+01 1.0000100000e+04 1.0000000000e+04 0.0000e+00 1.0000e+00
      -24  1    1    2    0    0 -4.0095511260e+03 +2.7864243867e+03 -1.1663853570e+03 5.0207059829e+03 7.9829010000e+01 0.0000e+00 -1.0000e+00
       24  1    1    2    0    0 +1.4362672346e+02 -3.0571033298e+02 -2.8833896840e+01 3.4826930360e+02 7.9829010000e+01 0.0000e+00 -1.0000e+00
       22  1    1    2    0    0 -1.9173500726e+03 +3.4154761390e+03 +4.2921143548e+03 5.8106758808e+03 0.0000000000e+00 0.0000e+00 -1.0000e+00
       22  1    1    2    0    0 +5.7832744751e+03 -5.8961901927e+03 -3.0968951009e+03 8.8205488327e+03 0.0000000000e+00 0.0000e+00 -1.0000e+00
</event>
<event>
 6      1 +1.4834189e-01 1.00416100e+04 7.81653100e-03 6.93621900e-02
  1000022 -1    0    0    0    0 +0.0000000000e+00 +0.0000000000e+00 +4.4721471353e+01 1.0000100000e+04 1.0000000000e+04 0.0000e+00 1.0000e+00
  1000022 -1    0    0    0    0 -0.0000000000e+00 -0.0000000000e+00 -4.4721471353e+01 1.0000100000e+04 1.0000000000e+04 0.0000e+00 1.0000e+00
      -24  1    1    2    0    0 +3.8721818215e+02 -1.6808556779e+02 +8.3958184366e+01 4.3773545236e+02 7.9829010000e+01 0.0000e+00 0.0000e+00
       24  1    1    2    0    0 -9.4080994007e+03 +1.3482774538e+03 -2.9727070752e+03 9.9585915897e+03 7.9829010000e+01 0.0000e+00 1.0000e+00
       22  1    1    2    0    0 +8.9849076273e+03 -1.1029784174e+03 +2.7880480241e+03 9.4719764698e+03 0.0000000000e+00 0.0000e+00 1.0000e+00
       22  1    1    2    0    0 +3.5973591195e+01 -7.7213468650e+01 +1.0070086676e+02 1.3189648809e+02 0.0000000000e+00 0.0000e+00 -1.0000e+00
</event>
<event>
 6      1 +1.4834189e-01 1.00037300e+04 7.81653100e-03 6.93850000e-02
  1000022 -1    0    0    0    0 +0.0000000000e+00 +0.0000000000e+00 +4.4721471353e+01 1.0000100000e+04 1.0000000000e+04 0.0000e+00 -1.0000e+00
  1000022 -1    0    0    0    0 -0.0000000000e+00 -0.0000000000e+00 -4.4721471353e+01 1.0000100000e+04 1.0000000000e+04 0.0000e+00 -1.0000e+00
      -24  1    1    2    0    0 +9.8664691643e+03 +1.1480214127e+03 +1.9130080901e+02 9.9351968076e+03 7.9829010000e+01 0.0000e+00 1.0000e+00
       24  1    1    2    0    0 -9.9262805277e+03 -1.1653344851e+03 -1.8456299112e+02 9.9964736655e+03 7.9829010000e+01 0.0000e+00 1.0000e+00
       22  1    1    2    0    0 +4.9748598512e+01 +1.9114175037e+01 +4.3216305062e+00 5.3469161500e+01 0.0000000000e+00 0.0000e+00 1.0000e+00
       22  1    1    2    0    0 +1.0062764838e+01 -1.8011026500e+00 -1.1059448402e+01 1.5060365397e+01 0.0000000000e+00 0.0000e+00 1.0000e+00
</event>
<event>
 6      1 +1.4834189e-01 1.00087300e+04 7.81653100e-03 6.93819900e-02
  1000022 -1    0    0    0    0 +0.0000000000e+00 +0.0000000000e+00 +4.4721471353e+01 1.0000100000e+04 1.0000000000e+04 0.0000e+00 -1.0000e+00
  1000022 -1    0    0    0    0 -0.0000000000e+00 -0.0000000000e+00 -4.4721471353e+01 1.0000100000e+04 1.0000000000e+04 0.0000e+00 -1.0000e+00
      -24  1    1    2    0    0 +5.7734609753e+03 +7.2560187416e+03 +3.4866638914e+03 9.9068591074e+03 7.9829010000e+01 0.0000e+00 1.0000e+00
       24  1    1    2    0    0 -9.8323626367e+02 -1.1344145196e+03 -5.3475945764e+02 1.5956159315e+03 7.9829010000e+01 0.0000e+00 -1.0000e+00
       22  1    1    2    0    0 +2.2540044403e+01 +9.8506693864e+01 -1.2872046736e+01 1.0186909210e+02 0.0000000000e+00 0.0000e+00 1.0000e+00
       22  1    1    2    0    0 -4.8127647560e+03 -6.2201109158e+03 -2.9390323870e+03 8.3958558690e+03 0.0000000000e+00 0.0000e+00 1.0000e+00
</event>
<event>
 6      1 +1.4834189e-01 1.01005900e+04 7.81653100e-03 6.93268700e-02
  1000022 -1    0    0    0    0 +0.0000000000e+00 +0.0000000000e+00 +4.4721471353e+01 1.0000100000e+04 1.0000000000e+04 0.0000e+00 1.0000e+00
  1000022 -1    0    0    0    0 -0.0000000000e+00 -0.0000000000e+00 -4.4721471353e+01 1.0000100000e+04 1.0000000000e+04 0.0000e+00 1.0000e+00
      -24  1    1    2    0    0 -2.7386817965e+02 +5.7332039706e+02 -1.8161959420e+02 6.6562632561e+02 7.9829010000e+01 0.0000e+00 1.0000e+00
       24  1    1    2    0    0 -2.8151563757e+03 -7.8363718310e+03 +5.1619253903e+03 9.7972279396e+03 7.9829010000e+01 0.0000e+00 -1.0000e+00
       22  1    1    2    0    0 -3.3326842689e+01 -7.8778283903e+01 +5.6261041798e+01 1.0238164524e+02 0.0000000000e+00 0.0000e+00 -1.0000e+00
       22  1    1    2    0    0 +3.1223513981e+03 +7.3418297178e+03 -5.0365668379e+03 9.4349640896e+03 0.0000000000e+00 0.0000e+00 -1.0000e+00
</event>
<event>
 6      1 +1.4834189e-01 1.00844100e+04 7.81653100e-03 6.93365300e-02
  1000022 -1    0    0    0    0 +0.0000000000e+00 +0.0000000000e+00 +4.4721471353e+01 1.0000100000e+04 1.0000000000e+04 0.0000e+00 -1.0000e+00
  1000022 -1    0    0    0    0 -0.0000000000e+00 -0.0000000000e+00 -4.4721471353e+01 1.0000100000e+04 1.0000000000e+04 0.0000e+00 -1.0000e+00
      -24  1    1    2    0    0 -1.8847106289e+02 +9.3446680426e+03 -3.3103018590e+03 9.9157860624e+03 7.9829010000e+01 0.0000e+00 1.0000e+00
       24  1    1    2    0    0 -3.3095955512e+02 -1.2125951295e+03 +9.1406973237e+02 1.5562189183e+03 7.9829010000e+01 0.0000e+00 -1.0000e+00
       22  1    1    2    0    0 +2.1250259179e+01 +6.6726754078e+00 +3.0867966604e+01 3.8064806246e+01 0.0000000000e+00 0.0000e+00 -1.0000e+00
       22  1    1    2    0    0 +4.9818035883e+02 -8.1387455885e+03 +2.3653641600e+03 8.4901302130e+03 0.0000000000e+00 0.0000e+00 1.0000e+00
</event>
<event>
 6      1 +1.4834189e-01 1.00874800e+04 7.81653100e-03 6.93347000e-02
  1000022 -1    0    0    0    0 +0.0000000000e+00 +0.0000000000e+00 +4.4721471353e+01 1.0000100000e+04 1.0000000000e+04 0.0000e+00 1.0000e+00
  1000022 -1    0    0    0    0 -0.0000000000e+00 -0.0000000000e+00 -4.4721471353e+01 1.0000100000e+04 1.0000000000e+04 0.0000e+00 1.0000e+00
      -24  1    1    2    0    0 +1.9310401396e+03 +1.2484403248e+03 +8.8347772823e+03 9.1294677591e+03 7.9829010000e+01 0.0000e+00 1.0000e+00
       24  1    1    2    0    0 -1.2831029379e+03 +1.8817496883e+02 -2.9943500742e+03 3.2640876223e+03 7.9829010000e+01 0.0000e+00 1.0000e+00
       22  1    1    2    0    0 -7.9626502090e+02 -1.5131210183e+03 -6.6056897429e+03 6.8233943297e+03 0.0000000000e+00 0.0000e+00 1.0000e+00
       22  1    1    2    0    0 +1.4832781919e+02 +7.6505724737e+01 +7.6526253481e+02 7.8325028889e+02 0.0000000000e+00 0.0000e+00 1.0000e+00
</event>
<event>
 6      1 +1.4834189e-01 1.00075200e+04 7.81653100e-03 6.93827100e-02
  1000022 -1    0    0    0    0 +0.0000000000e+00 +0.0000000000e+00 +4.4721471353e+01 1.0000100000e+04 1.0000000000e+04 0.0000e+00 1.0000e+00
  1000022 -1    0    0    0    0 -0.0000000000e+00 -0.0000000000e+00 -4.4721471353e+01 1.0000100000e+04 1.0000000000e+04 0.0000e+00 1.0000e+00
      -24  1    1    2    0    0 -4.5253809121e+03 -1.0351596563e+03 +7.4773909904e+03 8.8016121596e+03 7.9829010000e+01 0.0000e+00 -1.0000e+00
       24  1    1    2    0    0 +4.9087745738e+03 +1.0069974869e+03 -8.3831470712e+03 9.7669667371e+03 7.9829010000e+01 0.0000e+00 -1.0000e+00
       22  1    1    2    0    0 -5.1049900996e+02 +2.4743866653e+01 +1.0922445021e+03 1.2059102581e+03 0.0000000000e+00 0.0000e+00 1.0000e+00
       22  1    1    2    0    0 +1.2710534826e+02 +3.4183027019e+00 -1.8648842134e+02 2.2571084521e+02 0.0000000000e+00 0.0000e+00 -1.0000e+00
</event>
<event>
 6      1 +1.4834189e-01 9.94205800e+03 7.81653100e-03 6.94223600e-02
  1000022 -1    0    0    0    0 +0.0000000000e+00 +0.0000000000e+00 +4.4721471353e+01 1.0000100000e+04 1.0000000000e+04 0.0000e+00 -1.0000e+00
  1000022 -1    0    0    0    0 -0.0000000000e+00 -0.0000000000e+00 -4.4721471353e+01 1.0000100000e+04 1.0000000000e+04 0.0000e+00 -1.0000e+00
      -24  1    1    2    0    0 -6.6083643326e+01 -1.6267708138e+01 -5.2615866071e+01 1.1735751550e+02 7.9829010000e+01 0.0000e+00 -1.0000e+00
       24  1    1    2    0    0 -5.3744057723e+03 -5.7444274338e+03 +5.5867597849e+03 9.6488829153e+03 7.9829010000e+01 0.0000e+00 1.0000e+00
       22  1    1    2    0    0 -1.3969534123e+02 -1.6903223453e+02 +1.8232576499e+02 2.8518304517e+02 0.0000000000e+00 0.0000e+00 1.0000e+00
       22  1    1    2    0    0 +5.5801847569e+03 +5.9297273765e+03 -5.7164696838e+03 9.9487765241e+03 0.0000000000e+00 0.0000e+00 1.0000e+00
</event>
<event>
 6      1 +1.4834189e-01 1.01708100e+04 7.81653100e-03 6.92851400e-02
  1000022 -1    0    0    0    0 +0.0000000000e+00 +0.0000000000e+00 +4.4721471353e+01 1.0000100000e+04 1.0000000000e+04 0.0000e+00 1.0000e+00
  1000022 -1    0    0    0    0 -0.0000000000e+00 -0.0000000000e+00 -4.4721471353e+01 1.0000100000e+04 1.0000000000e+04 0.0000e+00 1.0000e+00
      -24  1    1    2    0    0 +8.3240279988e+03 -2.9168511074e+03 +4.3374073226e+03 9.8293915102e+03 7.9829010000e+01 0.0000e+00 -1.0000e+00
       24  1    1    2    0    0 -3.0941195822e+02 -2.7657844512e+02 -6.3941634755e+02 7.6645765216e+02 7.9829010000e+01 0.0000e+00 -1.0000e+00
       22  1    1    2    0    0 -8.0035148207e+03 +3.2121732581e+03 -3.6812721503e+03 9.3768902718e+03 0.0000000000e+00 0.0000e+00 -1.0000e+00
       22  1    1    2    0    0 -1.1101219873e+01 -1.8743705511e+01 -1.6718824752e+01 2.7460565909e+01 0.0000000000e+00 0.0000e+00 -1.0000e+00
</event>
<event>
 6      1 +1.4834189e-01 1.00002500e+04 7.81653100e-03 6.93871000e-02
  1000022 -1    0    0    0    0 +0.0000000000e+00 +0.0000000000e+00 +4.4721471353e+01 1.0000100000e+04 1.0000000000e+04 0.0000e+00 -1.0000e+00
  1000022 -1    0    0    0    0 -0.0000000000e+00 -0.0000000000e+00 -4.4721471353e+01 1.0000100000e+04 1.0000000000e+04 0.0000e+00 -1.0000e+00
      -24  1    1    2    0    0 -8.9514721380e+03 -6.2356356436e+02 +3.7879351710e+03 9.7402520752e+03 7.9829010000e+01 0.0000e+00 -1.0000e+00
       24  1    1    2    0    0 +7.2633859087e+03 +4.8375503809e+02 -3.0546146847e+03 7.8947981189e+03 7.9829010000e+01 0.0000e+00 -1.0000e+00
       22  1    1    2    0    0 -2.3557904013e+02 -2.0415496182e+01 +1.0737313157e+02 2.5969841358e+02 0.0000000000e+00 0.0000e+00 -1.0000e+00
       22  1    1    2    0    0 +1.9236652695e+03 +1.6022402246e+02 -8.4069361787e+02 2.1054513923e+03 0.0000000000e+00 0.0000e+00 -1.0000e+00
</event>
<event>
 6      1 +1.4834189e-01 1.00005300e+04 7.81653100e-03 6.93869400e-02
  1000022 -1    0    0    0    0 +0.0000000000e+00 +0.0000000000e+00 +4.4721471353e+01 1.0000100000e+04 1.0000000000e+04 0.0000e+00 1.0000e+00
  1000022 -1    0    0    0    0 -0.0000000000e+00 -0.0000000000e+00 -4.4721471353e+01 1.0000100000e+04 1.0000000000e+04 0.0000e+00 1.0000e+00
      -24  1    1    2    0    0 -4.6274800847e+03 +2.5099540736e+03 -7.6004963080e+03 9.2459373881e+03 7.9829010000e+01 0.0000e+00 -1.0000e+00
       24  1    1    2    0    0 +4.8222380735e+03 -2.5856762388e+03 +7.9912689878e+03 9.6853732171e+03 7.9829010000e+01 0.0000e+00 -1.0000e+00
       22  1    1    2    0    0 +1.6552233405e+02 -9.3479760988e+01 +2.5029825625e+02 3.1430132973e+02 0.0000000000e+00 0.0000e+00 1.0000e+00
       22  1    1    2    0    0 -3.6028032280e+02 +1.6920192613e+02 -6.4107093604e+02 7.5458806500e+02 0.0000000000e+00 0.0000e+00 1.0000e+00
</event>
<event>
 6      1 +1.4834189e-01 1.00005900e+04 7.81653100e-03 6.93869000e-02
  1000022 -1    0    0    0    0 +0.0000000000e+00 +0.0000000000e+00 +4.4721471353e+01 1.0000100000e+04 1.0000000000e+04 0.0000e+00 -1.0000e+00
  1000022 -1    0    0    0    0 -0.0000000000e+00 -0.0000000000e+00 -4.4721471353e+01 1.0000100000e+04 1.0000000000e+04 0.0000e+00 -1.0000e+00
      -24  1    1    2    0    0 -3.8746852928e+02 +5.6298633306e+03 -8.2196021632e+03 9.9706431776e+03 7.9829010000e+01 0.0000e+00 -1.0000e+00
       24  1    1    2    0    0 +3.8461325548e+02 -4.6576762545e+03 +6.4015452515e+03 7.9264134213e+03 7.9829010000e+01 0.0000e+00 -1.0000e+00
       22  1    1    2    0    0 -2.0043465254e+01 +2.0713901629e+01 -2.8846449674e+00 2.8967695744e+01 0.0000000000e+00 0.0000e+00 -1.0000e+00
       22  1    1    2    0    0 +2.2898739060e+01 -9.9290097776e+02 +1.8209415566e+03 2.0741757053e+03 0.0000000000e+00 0.0000e+00 1.0000e+00
</event>
<event>
 6      1 +1.4834189e-01 1.01214500e+04 7.81653100e-03 6.93144400e-02
  1000022 -1    0    0    0    0 +0.0000000000e+00 +0.0000000000e+00 +4.4721471353e+01 1.0000100000e+04 1.0000000000e+04 0.0000e+00 -1.0000e+00
  1000022 -1    0    0    0    0 -0.0000000000e+00 -0.0000000000e+00 -4.4721471353e+01 1.0000100000e+04 1.0000000000e+04 0.0000e+00 -1.0000e+00
      -24  1    1    2    0    0 +3.8756770193e+03 +2.8880002432e+03 +4.1311192650e+03 6.3587684984e+03 7.9829010000e+01 0.0000e+00 1.0000e+00
       24  1    1    2    0    0 -5.0409047483e+03 -5.7988317153e+03 -6.1777095393e+03 9.8593933772e+03 7.9829010000e+01 0.0000e+00 1.0000e+00
       22  1    1    2    0    0 +1.1755392778e+03 +2.9220196940e+03 +2.0585590556e+03 3.7626795068e+03 0.0000000000e+00 0.0000e+00 1.0000e+00
       22  1    1    2    0    0 -1.0311548781e+01 -1.1188221917e+01 -1.1968781363e+01 1.9358617596e+01 0.0000000000e+00 0.0000e+00 -1.0000e+00
</event>
<event>
 6      1 +1.4834189e-01 9.75061300e+03 7.81653100e-03 6.95400900e-02
  1000022 -1    0    0    0    0 +0.0000000000e+00 +0.0000000000e+00 +4.4721471353e+01 1.0000100000e+04 1.0000000000e+04 0.0000e+00 -1.0000e+00
  1000022 -1    0    0    0    0 -0.0000000000e+00 -0.0000000000e+00 -4.4721471353e+01 1.0000100000e+04 1.0000000000e+04 0.0000e+00 -1.0000e+00
      -24  1    1    2    0    0 +7.0567501859e+03 -5.8050154094e+03 +3.6746320717e+03 9.8491228353e+03 7.9829010000e+01 0.0000e+00 -1.0000e+00
       24  1    1    2    0    0 -1.0092928251e+02 -2.5018910711e+01 -4.7559961800e+02 4.9333592352e+02 7.9829010000e+01 0.0000e+00 -1.0000e+00
       22  1    1    2    0    0 +1.3669023417e+01 -8.8161214572e+00 +5.9386772871e+00 1.7315717907e+01 0.0000000000e+00 0.0000e+00 -1.0000e+00
       22  1    1    2    0    0 -6.9694899269e+03 +5.8388504416e+03 -3.2049711310e+03 9.6404255233e+03 0.0000000000e+00 0.0000e+00 -1.0000e+00
</event>
<event>
 6      1 +1.4834189e-01 1.00027500e+04 7.81653100e-03 6.93855900e-02
  1000022 -1    0    0    0    0 +0.0000000000e+00 +0.0000000000e+00 +4.4721471353e+01 1.0000100000e+04 1.0000000000e+04 0.0000e+00 1.0000e+00
  1000022 -1    0    0    0    0 -0.0000000000e+00 -0.0000000000e+00 -4.4721471353e+01 1.0000100000e+04 1.0000000000e+04 0.0000e+00 1.0000e+00
      -24  1    1    2    0    0 -8.1748905146e+03 +2.5718295678e+03 -5.1083088761e+03 9.9771907116e+03 7.9829010000e+01 0.0000e+00 -1.0000e+00
       24  1    1    2    0    0 +8.1511330759e+03 -2.5363509774e+03 +5.0792870533e+03 9.9337594264e+03 7.9829010000e+01 0.0000e+00 -1.0000e+00
       22  1    1    2    0    0 +4.0409727964e+01 -3.9088675321e+01 +3.9983334929e+01 6.8989402987e+01 0.0000000000e+00 0.0000e+00 -1.0000e+00
       22  1    1    2    0    0 -1.6652289284e+01 +3.6100849898e+00 -1.0961512054e+01 2.0260458992e+01 0.0000000000e+00 0.0000e+00 1.0000e+00
</event>
<event>
 6      1 +1.4834189e-01 1.06520100e+04 7.81653100e-03 6.90079600e-02
  1000022 -1    0    0    0    0 +0.0000000000e+00 +0.0000000000e+00 +4.4721471353e+01 1.0000100000e+04 1.0000000000e+04 0.0000e+00 -1.0000e+00
  1000022 -1    0    0    0    0 -0.0000000000e+00 -0.0000000000e+00 -4.4721471353e+01 1.0000100000e+04 1.0000000000e+04 0.0000e+00 -1.0000e+00
      -24  1    1    2    0    0 +7.0582161000e+03 +1.6578070153e+03 +4.9455182738e+03 8.7767455404e+03 7.9829010000e+01 0.0000e+00 -1.0000e+00
       24  1    1    2    0    0 -7.3721808078e+03 -3.9096373977e+02 -4.9569113720e+03 8.8926512093e+03 7.9829010000e+01 0.0000e+00 -1.0000e+00
       22  1    1    2    0    0 +7.2734535317e+01 -1.7487583864e+03 -1.7863418811e+02 1.7593624924e+03 0.0000000000e+00 0.0000e+00 1.0000e+00
       22  1    1    2    0    0 +2.4123017250e+02 +4.8191511086e+02 +1.9002728632e+02 5.7144075786e+02 0.0000000000e+00 0.0000e+00 1.0000e+00
</event>
<event>
 6      1 +1.4834189e-01 1.02439400e+04 7.81653100e-03 6.92420300e-02
  1000022 -1    0    0    0    0 +0.0000000000e+00 +0.0000000000e+00 +4.4721471353e+01 1.0000100000e+04 1.0000000000e+04 0.0000e+00 -1.0000e+00
  1000022 -1    0    0    0    0 -0.0000000000e+00 -0.0000000000e+00 -4.4721471353e+01 1.0000100000e+04 1.0000000000e+04 0.0000e+00 -1.0000e+00
      -24  1    1    2    0    0 +6.5670587494e+03 +6.7630295164e+03 +9.3084292264e+02 9.4729968899e+03 7.9829010000e+01 0.0000e+00 1.0000e+00
       24  1    1    2    0    0 -6.5154914724e+03 -7.1434370116e+03 -1.3030126543e+03 9.7562562550e+03 7.9829010000e+01 0.0000e+00 1.0000e+00
       22  1    1    2    0    0 +2.3770453322e+02 +1.3557565123e+02 +6.0458979298e+01 2.8024897948e+02 0.0000000000e+00 0.0000e+00 1.0000e+00
       22  1    1    2    0    0 -2.8927181022e+02 +2.4483184394e+02 +3.1171075236e+02 4.9069787561e+02 0.0000000000e+00 0.0000e+00 1.0000e+00
</event>
<event>
 6      1 +1.4834189e-01 1.01526800e+04 7.81653100e-03 6.92958800e-02
  1000022 -1    0    0    0    0 +0.0000000000e+00 +0.0000000000e+00 +4.4721471353e+01 1.0000100000e+04 1.0000000000e+04 0.0000e+00 1.0000e+00
  1000022 -1    0    0    0    0 -0.0000000000e+00 -0.0000000000e+00 -4.4721471353e+01 1.0000100000e+04 1.0000000000e+04 0.0000e+00 1.0000e+00
      -24  1    1    2    0    0 +7.3580163942e+03 +5.6556474435e+03 +1.7392853865e+03 9.4423640890e+03 7.9829010000e+01 0.0000e+00 1.0000e+00
       24  1    1    2    0    0 -7.1269546953e+03 -6.2348513922e+03 -2.0089774331e+03 9.6803521686e+03 7.9829010000e+01 0.0000e+00 1.0000e+00
       22  1    1    2    0    0 -1.4074749043e+02 -8.4179411991e+01 +3.2379731441e+01 1.6716601471e+02 0.0000000000e+00 0.0000e+00 -1.0000e+00
       22  1    1    2    0    0 -9.0314208487e+01 +6.6338336061e+02 +2.3731231512e+02 7.1031772771e+02 0.0000000000e+00 0.0000e+00 1.0000e+00
</event>
<event>
 6      1 +1.4834189e-01 7.57861900e+03 7.81653100e-03 7.11033800e-02
  1000022 -1    0    0    0    0 +0.0000000000e+00 +0.0000000000e+00 +4.4721471353e+01 1.0000100000e+04 1.0000000000e+04 0.0000e+00 1.0000e+00
  1000022 -1    0    0    0    0 -0.0000000000e+00 -0.0000000000e+00 -4.4721471353e+01 1.0000100000e+04 1.0000000000e+04 0.0000e+00 1.0000e+00
      -24  1    1    2    0    0 +2.3786066019e+03 +1.9746362978e+02 +5.8582214833e+03 6.3262858669e+03 7.9829010000e+01 0.0000e+00 -1.0000e+00
       24  1    1    2    0    0 +2.6651551210e+03 -3.3100801566e+03 -2.7066948262e+02 4.2590277179e+03 7.9829010000e+01 0.0000e+00 -1.0000e+00
       22  1    1    2    0    0 -5.2599376190e+03 +3.1402777963e+03 -6.2294786345e+03 8.7369727281e+03 0.0000000000e+00 0.0000e+00 -1.0000e+00
       22  1    1    2    0    0 +2.1617589607e+02 -2.7661269538e+01 +6.4192663387e+02 6.7791368709e+02 0.0000000000e+00 0.0000e+00 1.0000e+00
</event>
<event>
 6      1 +1.4834189e-01 1.00079700e+04 7.81653100e-03 6.93824400e-02
  1000022 -1    0    0    0    0 +0.0000000000e+00 +0.0000000000e+00 +4.4721471353e+01 1.0000100000e+04 1.0000000000e+04 0.0000e+00 1.0000e+00
  1000022 -1    0    0    0    0 -0.0000000000e+00 -0.0000000000e+00 -4.4721471353e+01 1.0000100000e+04 1.0000000000e+04 0.0000e+00 1.0000e+00
      -24  1    1    2    0    0 +3.7543302088e+03 -1.8133263396e+02 -1.2315993771e+03 3.9561454141e+03 7.9829010000e+01 0.0000e+00 1.0000e+00
       24  1    1    2    0    0 -1.9836605928e+03 +1.5868515816e+02 +1.1840604631e+02 1.9951147811e+03 7.9829010000e+01 0.0000e+00 1.0000e+00
       22  1    1    2    0    0 -7.5196500546e+03 +1.2841627657e+03 +2.4518768087e+03 8.0128590926e+03 0.0000000000e+00 0.0000e+00 1.0000e+00
       22  1    1    2    0    0 +5.7489804386e+03 -1.2615152899e+03 -1.3386834779e+03 6.0360807122e+03 0.0000000000e+00 0.0000e+00 1.0000e+00
</event>
<event>
 6      1 +1.4834189e-01 9.85126400e+03 7.81653100e-03 6.94778600e-02
  1000022 -1    0    0    0    0 +0.0000000000e+00 +0.0000000000e+00 +4.4721471353e+01 1.0000100000e+04 1.0000000000e+04 0.0000e+00 -1.0000e+00
  1000022 -1    0    0    0    0 -0.0000000000e+00 -0.0000000000e+00 -4.4721471353e+01 1.0000100000e+04 1.0000000000e+04 0.0000e+00 -1.0000e+00
      -24  1    1    2    0    0 +9.4374765653e+03 +7.9156381682e+02 +2.5931265455e+03 9.8195323284e+03 7.9829010000e+01 0.0000e+00 -1.0000e+00
       24  1    1    2    0    0 -1.3248356789e+02 +1.8428569662e+02 +1.7236371042e+02 2.9596458107e+02 7.9829010000e+01 0.0000e+00 -1.0000e+00
       22  1    1    2    0    0 -9.3669218000e+03 -9.7914092168e+02 -2.7824943901e+03 9.8203979544e+03 0.0000000000e+00 0.0000e+00 -1.0000e+00
       22  1    1    2    0    0 +6.1928802532e+01 +3.2914082345e+00 +1.7004134214e+01 6.4305136122e+01 0.0000000000e+00 0.0000e+00 -1.0000e+00
</event>
<event>
 6      1 +1.4834189e-01 1.00199000e+04 7.81653100e-03 6.93752500e-02
  1000022 -1    0    0    0    0 +0.0000000000e+00 +0.0000000000e+00 +4.4721471353e+01 1.0000100000e+04 1.0000000000e+04 0.0000e+00 -1.0000e+00
  1000022 -1    0    0    0    0 -0.0000000000e+00 -0.0000000000e+00 -4.4721471353e+01 1.0000100000e+04 1.0000000000e+04 0.0000e+00 -1.0000e+00
      -24  1    1    2    0    0 -3.6357287551e+03 +7.2179561791e+03 +4.8257776134e+03 9.4133903154e+03 7.9829010000e+01 0.0000e+00 1.0000e+00
       24  1    1    2    0    0 +3.6802535472e+03 -7.6631395745e+03 -5.2280045852e+03 9.9802995408e+03 7.9829010000e+01 0.0000e+00 1.0000e+00
       22  1    1    2    0    0 -2.0412258604e+01 +3.8628558152e+02 +3.6951521566e+02 5.3495299363e+02 0.0000000000e+00 0.0000e+00 1.0000e+00
       22  1    1    2    0    0 -2.4112533447e+01 +5.8897813918e+01 +3.2711756155e+01 7.1557150197e+01 0.0000000000e+00 0.0000e+00 1.0000e+00
</event>
<event>
 6      1 +1.4834189e-01 1.00556000e+04 7.81653100e-03 6.93537900e-02
  1000022 -1    0    0    0    0 +0.0000000000e+00 +0.0000000000e+00 +4.4721471353e+01 1.0000100000e+04 1.0000000000e+04 0.0000e+00 -1.0000e+00
  1000022 -1    0    0    0    0 -0.0000000000e+00 -0.0000000000e+00 -4.4721471353e+01 1.0000100000e+04 1.0000000000e+04 0.0000e+00 -1.0000e+00
      -24  1    1    2    0    0 -2.2287959612e+03 +2.0602347192e+03 +1.6315822112e+03 3.4468147205e+03 7.9829010000e+01 0.0000e+00 -1.0000e+00
       24  1    1    2    0    0 +7.3410897581e+03 -6.0399452434e+03 -2.8825914757e+03 9.9341956729e+03 7.9829010000e+01 0.0000e+00 -1.0000e+00
       22  1    1    2    0    0 -5.1202514313e+03 +3.9859888498e+03 +1.2533670571e+03 6.6087828539e+03 0.0000000000e+00 0.0000e+00 -1.0000e+00
       22  1    1    2    0    0 +7.9576343577e+00 -6.2783255508e+00 -2.3577925733e+00 1.0406752717e+01 0.0000000000e+00 0.0000e+00 -1.0000e+00
</event>
<event>
 6      1 +1.4834189e-01 1.00024700e+04 7.81653100e-03 6.93857600e-02
  1000022 -1    0    0    0    0 +0.0000000000e+00 +0.0000000000e+00 +4.4721471353e+01 1.0000100000e+04 1.0000000000e+04 0.0000e+00 -1.0000e+00
  1000022 -1    0    0    0    0 -0.0000000000e+00 -0.0000000000e+00 -4.4721471353e+01 1.0000100000e+04 1.0000000000e+04 0.0000e+00 -1.0000e+00
      -24  1    1    2    0    0 +9.4233574677e+02 +4.5728367710e+03 -8.5448570826e+03 9.7375452772e+03 7.9829010000e+01 0.0000e+00 -1.0000e+00
       24  1    1    2    0    0 -1.1697061830e+03 -4.7054221876e+03 +8.6080482269e+03 9.8799836774e+03 7.9829010000e+01 0.0000e+00 -1.0000e+00
       22  1    1    2    0    0 +1.3737598760e+02 +2.1486007266e+02 -5.1552041564e+01 2.6018190902e+02 0.0000000000e+00 0.0000e+00 1.0000e+00
       22  1    1    2    0    0 +8.9994448627e+01 -8.2274656036e+01 -1.1639102802e+01 1.2248913635e+02 0.0000000000e+00 0.0000e+00 1.0000e+00
</event>
<event>
 6      1 +1.4834189e-01 1.00066200e+04 7.81653100e-03 6.93832600e-02
  1000022 -1    0    0    0    0 +0.0000000000e+00 +0.0000000000e+00 +4.4721471353e+01 1.0000100000e+04 1.0000000000e+04 0.0000e+00 -1.0000e+00
  1000022 -1    0    0    0    0 -0.0000000000e+00 -0.0000000000e+00 -4.4721471353e+01 1.0000100000e+04 1.0000000000e+04 0.0000e+00 -1.0000e+00
      -24  1    1    2    0    0 -4.9928931373e+03 -1.1900027322e+03 -5.6100684215e+03 7.6042309768e+03 7.9829010000e+01 0.0000e+00 -1.0000e+00
       24  1    1    2    0    0 +6.1825734692e+03 +1.4308441146e+03 +7.3285205806e+03 9.6945921086e+03 7.9829010000e+01 0.0000e+00 -1.0000e+00
       22  1    1    2    0    0 -1.3729816225e+03 -2.7935802258e+02 -1.9514997201e+03 2.4023885194e+03 0.0000000000e+00 0.0000e+00 -1.0000e+00
       22  1    1    2    0    0 +1.8330129058e+02 +3.8516640202e+01 +2.3304756114e+02 2.9898839518e+02 0.0000000000e+00 0.0000e+00 1.0000e+00
</event>
<event>
 6      1 +1.4834189e-01 8.75154500e+03 7.81653100e-03 7.02020800e-02
  1000022 -1    0    0    0    0 +0.0000000000e+00 +0.0000000000e+00 +4.4721471353e+01 1.0000100000e+04 1.0000000000e+04 0.0000e+00 1.0000e+00
  1000022 -1    0    0    0    0 -0.0000000000e+00 -0.0000000000e+00 -4.4721471353e+01 1.0000100000e+04 1.0000000000e+04 0.0000e+00 1.0000e+00
      -24  1    1    2    0    0 +6.9242152430e+02 -1.8535387529e+03 -1.2505092746e+03 2.3420502968e+03 7.9829010000e+01 0.0000e+00 1.0000e+00
       24  1    1    2    0    0 -6.4471162163e+03 -5.2843978306e+03 +1.2108253995e+03 8.4239324996e+03 7.9829010000e+01 0.0000e+00 -1.0000e+00
       22  1    1    2    0    0 +5.7822616539e+03 +7.1567616095e+03 +3.9249001195e+01 9.2008329543e+03 0.0000000000e+00 0.0000e+00 -1.0000e+00
       22  1    1    2    0    0 -2.7566961897e+01 -1.8825025881e+01 +4.3487391433e-01 3.3384249325e+01 0.0000000000e+00 0.0000e+00 1.0000e+00
</event>
<event>
 6      1 +1.4834189e-01 1.00188900e+04 7.81653100e-03 6.93758600e-02
  1000022 -1    0    0    0    0 +0.0000000000e+00 +0.0000000000e+00 +4.4721471353e+01 1.0000100000e+04 1.0000000000e+04 0.0000e+00 -1.0000e+00
  1000022 -1    0    0    0    0 -0.0000000000e+00 -0.0000000000e+00 -4.4721471353e+01 1.0000100000e+04 1.0000000000e+04 0.0000e+00 -1.0000e+00
      -24  1    1    2    0    0 -4.6342706998e+03 +4.5772938602e+02 -5.4118692599e+03 7.1400758166e+03 7.9829010000e+01 0.0000e+00 -1.0000e+00
       24  1    1    2    0    0 +6.5059813189e+03 -7.8861777895e+02 +7.5279724325e+03 9.9813051520e+03 7.9829010000e+01 0.0000e+00 -1.0000e+00
       22  1    1    2    0    0 -1.8664424189e+03 +2.8131087754e+02 -1.9878719542e+03 2.7412365857e+03 0.0000000000e+00 0.0000e+00 -1.0000e+00
       22  1    1    2    0    0 -5.2682002594e+00 +4.9577515397e+01 -1.2823121845e+02 1.3758244565e+02 0.0000000000e+00 0.0000e+00 1.0000e+00
</event>
<event>
 6      1 +1.4834189e-01 1.00135700e+04 7.81653100e-03 6.93790700e-02
  1000022 -1    0    0    0    0 +0.0000000000e+00 +0.0000000000e+00 +4.4721471353e+01 1.0000100000e+04 1.0000000000e+04 0.0000e+00 1.0000e+00
  1000022 -1    0    0    0    0 -0.0000000000e+00 -0.0000000000e+00 -4.4721471353e+01 1.0000100000e+04 1.0000000000e+04 0.0000e+00 1.0000e+00
      -24  1    1    2    0    0 -9.3107275176e+03 -2.9088621440e+03 +2.0039404172e+03 9.9585779982e+03 7.9829010000e+01 0.0000e+00 1.0000e+00
       24  1    1    2    0    0 +1.2990455898e+03 +4.3758195360e+02 -2.9662663660e+02 1.4047624151e+03 7.9829010000e+01 0.0000e+00 0.0000e+00
       22  1    1    2    0    0 -1.0613733674e+01 -5.3952906660e+01 -1.2154406160e-01 5.4987109876e+01 0.0000000000e+00 0.0000e+00 -1.0000e+00
       22  1    1    2    0    0 +8.0222956615e+03 +2.5252330971e+03 -1.7071922365e+03 8.5818724767e+03 0.0000000000e+00 0.0000e+00 1.0000e+00
</event>
<event>
 6      1 +1.4834189e-01 1.01162700e+04 7.81653100e-03 6.93175200e-02
  1000022 -1    0    0    0    0 +0.0000000000e+00 +0.0000000000e+00 +4.4721471353e+01 1.0000100000e+04 1.0000000000e+04 0.0000e+00 -1.0000e+00
  1000022 -1    0    0    0    0 -0.0000000000e+00 -0.0000000000e+00 -4.4721471353e+01 1.0000100000e+04 1.0000000000e+04 0.0000e+00 -1.0000e+00
      -24  1    1    2    0    0 -4.5022121583e+03 +1.7293334108e+02 -6.2646708202e+03 7.7170132445e+03 7.9829010000e+01 0.0000e+00 1.0000e+00
       24  1    1    2    0    0 +5.4683888260e+03 +2.7246872598e+02 +7.7813040988e+03 9.5148610977e+03 7.9829010000e+01 0.0000e+00 1.0000e+00
       22  1    1    2    0    0 +3.1645118510e+02 -4.5684975715e+02 +2.2986749388e+02 6.0140844515e+02 0.0000000000e+00 0.0000e+00 1.0000e+00
       22  1    1    2    0    0 -1.2826278528e+03 +1.1447690089e+01 -1.7465007725e+03 2.1669172127e+03 0.0000000000e+00 0.0000e+00 -1.0000e+00
</event>
<event>
 6      1 +1.4834189e-01 1.03981400e+04 7.81653100e-03 6.91523200e-02
  1000022 -1    0    0    0    0 +0.0000000000e+00 +0.0000000000e+00 +4.4721471353e+01 1.0000100000e+04 1.0000000000e+04 0.0000e+00 1.0000e+00
  1000022 -1    0    0    0    0 -0.0000000000e+00 -0.0000000000e+00 -4.4721471353e+01 1.0000100000e+04 1.0000000000e+04 0.0000e+00 1.0000e+00
      -24  1    1    2    0    0 +1.3285681809e+03 +3.2416596861e+03 +5.0174798105e+03 6.1200430759e+03 7.9829010000e+01 0.0000e+00 -1.0000e+00
       24  1    1    2    0    0 -1.0782398870e+03 -4.1432805981e+03 -8.5944045820e+03 9.6020590583e+03 7.9829010000e+01 0.0000e+00 -1.0000e+00
       22  1    1    2    0    0 +7.7793273591e+02 +8.2266404286e+02 +2.6874352365e+03 2.9162070605e+03 0.0000000000e+00 0.0000e+00 -1.0000e+00
       22  1    1    2    0    0 -1.0282610299e+03 +7.8956869150e+01 +8.8948953499e+02 1.3618908053e+03 0.0000000000e+00 0.0000e+00 1.0000e+00
</event>
<event>
 6      1 +1.4834189e-01 1.00359600e+04 7.81653100e-03 6.93655800e-02
  1000022 -1    0    0    0    0 +0.0000000000e+00 +0.0000000000e+00 +4.4721471353e+01 1.0000100000e+04 1.0000000000e+04 0.0000e+00 1.0000e+00
  1000022 -1    0    0    0    0 -0.0000000000e+00 -0.0000000000e+00 -4.4721471353e+01 1.0000100000e+04 1.0000000000e+04 0.0000e+00 1.0000e+00
      -24  1    1    2    0    0 +3.5291622381e+03 -7.2018521503e+03 -5.7323831541e+03 9.8584101048e+03 7.9829010000e+01 0.0000e+00 -1.0000e+00
       24  1    1    2    0    0 -3.7139033971e+03 +7.2368082150e+03 +5.7308659016e+03 9.9505612021e+03 7.9829010000e+01 0.0000e+00 -1.0000e+00
       22  1    1    2    0    0 +1.7416294448e+02 -3.3807270568e+01 -7.0711313645e+00 1.7755467798e+02 0.0000000000e+00 0.0000e+00 -1.0000e+00
       22  1    1    2    0    0 +1.0578214543e+01 -1.1487941237e+00 +8.5883839079e+00 1.3674015102e+01 0.0000000000e+00 0.0000e+00 1.0000e+00
</event>
<event>
 6      1 +1.4834189e-01 1.00001500e+04 7.81653100e-03 6.93871700e-02
  1000022 -1    0    0    0    0 +0.0000000000e+00 +0.0000000000e+00 +4.4721471353e+01 1.0000100000e+04 1.0000000000e+04 0.0000e+00 -1.0000e+00
  1000022 -1    0    0    0    0 -0.0000000000e+00 -0.0000000000e+00 -4.4721471353e+01 1.0000100000e+04 1.0000000000e+04 0.0000e+00 -1.0000e+00
      -24  1    1    2    0    0 -2.1434029123e+02 -9.9848003965e+03 -1.1930787988e+02 9.9881323459e+03 7.9829010000e+01 0.0000e+00 1.0000e+00
       24  1    1    2    0    0 +2.1458805055e+02 +9.9605674829e+03 +1.1888370988e+02 9.9639077987e+03 7.9829010000e+01 0.0000e+00 1.0000e+00
       22  1    1    2    0    0 -4.0836589183e-01 -1.1888368834e+01 +1.6968818441e+00 1.2015801439e+01 0.0000000000e+00 0.0000e+00 1.0000e+00
       22  1    1    2    0    0 +1.6060657540e-01 +3.6121282419e+01 -1.2727118370e+00 3.6144053916e+01 0.0000000000e+00 0.0000e+00 1.0000e+00
</event>
<event>
 6      1 +1.4834189e-01 8.40830600e+03 7.81653100e-03 7.04503400e-02
  1000022 -1    0    0    0    0 +0.0000000000e+00 +0.0000000000e+00 +4.4721471353e+01 1.0000100000e+04 1.0000000000e+04 0.0000e+00 -1.0000e+00
  1000022 -1    0    0    0    0 -0.0000000000e+00 -0.0000000000e+00 -4.4721471353e+01 1.0000100000e+04 1.0000000000e+04 0.0000e+00 -1.0000e+00
      -24  1    1    2    0    0 -2.7097552191e+03 +1.1221403986e+03 -5.5506867655e+02 2.9860419167e+03 7.9829010000e+01 0.0000e+00 1.0000e+00
       24  1    1    2    0    0 +9.4292879367e+00 -3.9339936227e+01 +4.3771173878e+01 9.9624939416e+01 7.9829010000e+01 0.0000e+00 0.0000e+00
       22  1    1    2    0    0 -2.0409322335e+03 -1.7670383139e+03 -7.2822152382e+03 7.7664977667e+03 0.0000000000e+00 0.0000e+00 1.0000e+00
       22  1    1    2    0    0 +4.7412581647e+03 +6.8423785153e+02 +7.7935127408e+03 9.1480353772e+03 0.0000000000e+00 0.0000e+00 1.0000e+00
</event>
<event>
 6      1 +1.4834189e-01 1.04652300e+04 7.81653100e-03 6.91137700e-02
  1000022 -1    0    0    0    0 +0.0000000000e+00 +0.0000000000e+00 +4.4721471353e+01 1.0000100000e+04 1.0000000000e+04 0.0000e+00 -1.0000e+00
  1000022 -1    0    0    0    0 -0.0000000000e+00 -0.0000000000e+00 -4.4721471353e+01 1.0000100000e+04 1.0000000000e+04 0.0000e+00 -1.0000e+00
      -24  1    1    2    0    0 -3.5417958766e+03 +2.9728520552e+03 -3.3956513583e+03 5.7375071409e+03 7.9829010000e+01 0.0000e+00 -1.0000e+00
       24  1    1    2    0    0 +6.1052678090e+03 -2.0164903247e+03 +7.0405040806e+03 9.5349671541e+03 7.9829010000e+01 0.0000e+00 -1.0000e+00
       22  1    1    2    0    0 -2.2052350993e+03 -1.2323486545e+03 -3.3156749886e+03 4.1683864599e+03 0.0000000000e+00 0.0000e+00 -1.0000e+00
       22  1    1    2    0    0 -3.5823683311e+02 +2.7598692391e+02 -3.2917773374e+02 5.5933924514e+02 0.0000000000e+00 0.0000e+00 1.0000e+00
</event>
<event>
 6      1 +1.4834189e-01 7.74124200e+03 7.81653100e-03 7.09689200e-02
  1000022 -1    0    0    0    0 +0.0000000000e+00 +0.0000000000e+00 +4.4721471353e+01 1.0000100000e+04 1.0000000000e+04 0.0000e+00 1.0000e+00
  1000022 -1    0    0    0    0 -0.0000000000e+00 -0.0000000000e+00 -4.4721471353e+01 1.0000100000e+04 1.0000000000e+04 0.0000e+00 1.0000e+00
      -24  1    1    2    0    0 +3.5463858088e+03 +1.8603004372e+03 +2.0068482972e+02 4.0105133205e+03 7.9829010000e+01 0.0000e+00 -1.0000e+00
       24  1    1    2    0    0 -3.7535954522e+03 -7.4724628266e+03 +3.6812428243e+03 9.1370181633e+03 7.9829010000e+01 0.0000e+00 -1.0000e+00
       22  1    1    2    0    0 +2.2110546200e+02 +5.6211043690e+03 -3.8839936548e+03 6.8360155546e+03 0.0000000000e+00 0.0000e+00 -1.0000e+00
       22  1    1    2    0    0 -1.3895818635e+01 -8.9419795905e+00 +2.0660007555e+00 1.6652961708e+01 0.0000000000e+00 0.0000e+00 -1.0000e+00
</event>
<event>
 6      1 +1.4834189e-01 1.04528400e+04 7.81653100e-03 6.91208700e-02
  1000022 -1    0    0    0    0 +0.0000000000e+00 +0.0000000000e+00 +4.4721471353e+01 1.0000100000e+04 1.0000000000e+04 0.0000e+00 -1.0000e+00
  1000022 -1    0    0    0    0 -0.0000000000e+00 -0.0000000000e+00 -4.4721471353e+01 1.0000100000e+04 1.0000000000e+04 0.0000e+00 -1.0000e+00
      -24  1    1    2    0    0 +6.5943502123e+03 -2.0918620971e+03 -6.5790810867e+03 9.5473568265e+03 7.9829010000e+01 0.0000e+00 1.0000e+00
       24  1    1    2    0    0 -3.9114891805e+03 +2.3100727410e+03 +3.3033269897e+03 5.6173415019e+03 7.9829010000e+01 0.0000e+00 1.0000e+00
       22  1    1    2    0    0 -2.3655391026e+03 -6.8796209650e+02 +3.4528400459e+03 4.2416001078e+03 0.0000000000e+00 0.0000e+00 1.0000e+00
       22  1    1    2    0    0 -3.1732192928e+02 +4.6975145265e+02 -1.7708594889e+02 5.9390156370e+02 0.0000000000e+00 0.0000e+00 -1.0000e+00
</event>
<event>
 6      1 +1.4834189e-01 1.00111800e+04 7.81653100e-03 6.93805100e-02
  1000022 -1    0    0    0    0 +0.0000000000e+00 +0.0000000000e+00 +4.4721471353e+01 1.0000100000e+04 1.0000000000e+04 0.0000e+00 -1.0000e+00
  1000022 -1    0    0    0    0 -0.0000000000e+00 -0.0000000000e+00 -4.4721471353e+01 1.0000100000e+04 1.0000000000e+04 0.0000e+00 -1.0000e+00
      -24  1    1    2    0    0 -3.9912295740e+03 +9.4956482930e+02 +9.0688221964e+03 9.9539688355e+03 7.9829010000e+01 0.0000e+00 1.0000e+00
       24  1    1    2    0    0 +2.2557499068e+02 -5.0240788016e+01 -2.3901604308e+02 3.4192038969e+02 7.9829010000e+01 0.0000e+00 1.0000e+00
       22  1    1    2    0    0 +3.7953018536e+03 -9.0685865361e+02 -8.8469152348e+03 9.6692614997e+03 0.0000000000e+00 0.0000e+00 1.0000e+00
       22  1    1    2    0    0 -2.9647270321e+01 +7.5346123273e+00 +1.7109081450e+01 3.5049275149e+01 0.0000000000e+00 0.0000e+00 -1.0000e+00
</event>
<event>
 6      1 +1.4834189e-01 1.00761900e+04 7.81653100e-03 6.93414600e-02
  1000022 -1    0    0    0    0 +0.0000000000e+00 +0.0000000000e+00 +4.4721471353e+01 1.0000100000e+04 1.0000000000e+04 0.0000e+00 -1.0000e+00
  1000022 -1    0    0    0    0 -0.0000000000e+00 -0.0000000000e+00 -4.4721471353e+01 1.0000100000e+04 1.0000000000e+04 0.0000e+00 -1.0000e+00
      -24  1    1    2    0    0 +5.1665890353e+02 -6.7254505759e+02 +9.7411925341e+02 1.2940379700e+03 7.9829010000e+01 0.0000e+00 0.0000e+00
       24  1    1    2    0    0 -3.5410560962e+03 +4.8483310888e+03 -7.5511963531e+03 9.6474002538e+03 7.9829010000e+01 0.0000e+00 -1.0000e+00
       22  1    1    2    0    0 +3.2997667994e+03 -4.5044504405e+03 +6.5801167717e+03 8.6299751697e+03 0.0000000000e+00 0.0000e+00 -1.0000e+00
       22  1    1    2    0    0 -2.7536960675e+02 +3.2866440936e+02 -3.0396719621e+00 4.2878660649e+02 0.0000000000e+00 0.0000e+00 -1.0000e+00
</event>
<event>
 6      1 +1.4834189e-01 1.00011700e+04 7.81653100e-03 6.93865500e-02
  1000022 -1    0    0    0    0 +0.0000000000e+00 +0.0000000000e+00 +4.4721471353e+01 1.0000100000e+04 1.0000000000e+04 0.0000e+00 1.0000e+00
  1000022 -1    0    0    0    0 -0.0000000000e+00 -0.0000000000e+00 -4.4721471353e+01 1.0000100000e+04 1.0000000000e+04 0.0000e+00 1.0000e+00
      -24  1    1    2    0    0 +7.7483257929e+02 -9.6566694917e+02 +9.1912854424e+02 1.5440363125e+03 7.9829010000e+01 0.0000e+00 0.0000e+00
       24  1    1    2    0    0 -5.1948315994e+03 +6.0951921841e+03 -5.7174918885e+03 9.8404130641e+03 7.9829010000e+01 0.0000e+00 -1.0000e+00
       22  1    1    2    0    0 +4.4941583160e+03 -5.2308767166e+03 +4.8952568880e+03 8.4571313218e+03 0.0000000000e+00 0.0000e+00 -1.0000e+00
       22  1    1    2    0    0 -7.4159295953e+01 +1.0135148171e+02 -9.6893543739e+01 1.5861930160e+02 0.0000000000e+00 0.0000e+00 -1.0000e+00
</event>
<event>
 6      1 +1.4834189e-01 1.00160500e+04 7.81653100e-03 6.93775700e-02
  1000022 -1    0    0    0    0 +0.0000000000e+00 +0.0000000000e+00 +4.4721471353e+01 1.0000100000e+04 1.0000000000e+04 0.0000e+00 -1.0000e+00
  1000022 -1    0    0    0    0 -0.0000000000e+00 -0.0000000000e+00 -4.4721471353e+01 1.0000100000e+04 1.0000000000e+04 0.0000e+00 -1.0000e+00
      -24  1    1    2    0    0 -6.0271760316e+03 -4.7188618410e+03 -5.3365562035e+03 9.3316511280e+03 7.9829010000e+01 0.0000e+00 1.0000e+00
       24  1    1    2    0    0 +5.7727282753e+03 +4.7366406150e+03 +5.3146652748e+03 9.1658166963e+03 7.9829010000e+01 0.0000e+00 1.0000e+00
       22  1    1    2    0    0 -4.5616784990e+02 -3.6814169530e+02 -2.8659885496e+02 6.5250005269e+02 0.0000000000e+00 0.0000e+00 -1.0000e+00
       22  1    1    2    0    0 +7.1061560621e+02 +3.5036292128e+02 +3.0848978368e+02 8.5023212303e+02 0.0000000000e+00 0.0000e+00 1.0000e+00
</event>
<event>
 6      1 +1.4834189e-01 1.00055300e+04 7.81653100e-03 6.93839200e-02
  1000022 -1    0    0    0    0 +0.0000000000e+00 +0.0000000000e+00 +4.4721471353e+01 1.0000100000e+04 1.0000000000e+04 0.0000e+00 1.0000e+00
  1000022 -1    0    0    0    0 -0.0000000000e+00 -0.0000000000e+00 -4.4721471353e+01 1.0000100000e+04 1.0000000000e+04 0.0000e+00 1.0000e+00
      -24  1    1    2    0    0 +6.4182784995e+02 -3.9179255053e+02 -5.1697149557e+02 9.1601123884e+02 7.9829010000e+01 0.0000e+00 0.0000e+00
       24  1    1    2    0    0 -7.5615017450e+03 +3.8728734456e+03 +5.2238576063e+03 9.9734907794e+03 7.9829010000e+01 0.0000e+00 -1.0000e+00
       22  1    1    2    0    0 +6.9449830945e+03 -3.4621177376e+03 -4.7120088422e+03 9.0786605147e+03 0.0000000000e+00 0.0000e+00 -1.0000e+00
       22  1    1    2    0    0 -2.5309199493e+01 -1.8963157415e+01 +5.1227314832e+00 3.2037467066e+01 0.0000000000e+00 0.0000e+00 1.0000e+00
</event>
<event>
 6      1 +1.4834189e-01 1.00053900e+04 7.81653100e-03 6.93840000e-02
  1000022 -1    0    0    0    0 +0.0000000000e+00 +0.0000000000e+00 +4.4721471353e+01 1.0000100000e+04 1.0000000000e+04 0.0000e+00 1.0000e+00
  1000022 -1    0    0    0    0 -0.0000000000e+00 -0.0000000000e+00 -4.4721471353e+01 1.0000100000e+04 1.0000000000e+04 0.0000e+00 1.0000e+00
      -24  1    1    2    0    0 +1.8780489282e+02 -1.4277983142e+02 +2.3739196012e+02 3.4407030036e+02 7.9829010000e+01 0.0000e+00 0.0000e+00
       24  1    1    2    0    0 -6.3119108356e+03 +3.7655924307e+03 -6.7286625929e+03 9.9649976272e+03 7.9829010000e+01 0.0000e+00 1.0000e+00
       22  1    1    2    0    0 +6.1435122444e+03 -3.6342700441e+03 +6.5107906313e+03 9.6613175134e+03 0.0000000000e+00 0.0000e+00 1.0000e+00
       22  1    1    2    0    0 -1.9406301670e+01 +1.1457444754e+01 -1.9519998515e+01 2.9814558974e+01 0.0000000000e+00 0.0000e+00 1.0000e+00
</event>
<event>
 6      1 +1.4834189e-01 1.00001300e+04 7.81653100e-03 6.93871800e-02
  1000022 -1    0    0    0    0 +0.0000000000e+00 +0.0000000000e+00 +4.4721471353e+01 1.0000100000e+04 1.0000000000e+04 0.0000e+00 1.0000e+00
  1000022 -1    0    0    0    0 -0.0000000000e+00 -0.0000000000e+00 -4.4721471353e+01 1.0000100000e+04 1.0000000000e+04 0.0000e+00 1.0000e+00
      -24  1    1    2    0    0 +7.1175222121e+03 +8.2975475991e+02 -6.5551139993e+03 9.7120290164e+03 7.9829010000e+01 0.0000e+00 -1.0000e+00
       24  1    1    2    0    0 -6.9964592830e+03 -8.2245337364e+02 +6.4322873238e+03 9.5397885164e+03 7.9829010000e+01 0.0000e+00 -1.0000e+00
       22  1    1    2    0    0 -3.3981420029e+02 -2.5969710614e+01 +3.0937506006e+02 4.6028365643e+02 0.0000000000e+00 0.0000e+00 1.0000e+00
       22  1    1    2    0    0 +2.1875127122e+02 +1.8668324348e+01 -1.8654838458e+02 2.8809881080e+02 0.0000000000e+00 0.0000e+00 -1.0000e+00
</event>
<event>
 6      1 +1.4834189e-01 1.05492000e+04 7.81653100e-03 6.90659300e-02
  1000022 -1    0    0    0    0 +0.0000000000e+00 +0.0000000000e+00 +4.4721471353e+01 1.0000100000e+04 1.0000000000e+04 0.0000e+00 1.0000e+00
  1000022 -1    0    0    0    0 -0.0000000000e+00 -0.0000000000e+00 -4.4721471353e+01 1.0000100000e+04 1.0000000000e+04 0.0000e+00 1.0000e+00
      -24  1    1    2    0    0 +7.4893425450e+03 +3.8645389589e+03 -4.2766950124e+03 9.4510002657e+03 7.9829010000e+01 0.0000e+00 -1.0000e+00
       24  1    1    2    0    0 -5.7608200998e+03 -4.6116688710e+03 +4.4688220656e+03 8.6273565664e+03 7.9829010000e+01 0.0000e+00 -1.0000e+00
       22  1    1    2    0    0 -1.8224632685e+01 -2.6774172668e+01 +9.6263476167e+00 3.3788461447e+01 0.0000000000e+00 0.0000e+00 -1.0000e+00
       22  1    1    2    0    0 -1.7102978125e+03 +7.7390408479e+02 -2.0175340079e+02 1.8880547065e+03 0.0000000000e+00 0.0000e+00 -1.0000e+00
</event>
<event>
 6      1 +1.4834189e-01 6.84243900e+03 7.81653100e-03 7.17578000e-02
  1000022 -1    0    0    0    0 +0.0000000000e+00 +0.0000000000e+00 +4.4721471353e+01 1.0000100000e+04 1.0000000000e+04 0.0000e+00 1.0000e+00
  1000022 -1    0    0    0    0 -0.0000000000e+00 -0.0000000000e+00 -4.4721471353e+01 1.0000100000e+04 1.0000000000e+04 0.0000e+00 1.0000e+00
      -24  1    1    2    0    0 -7.0542552511e+02 +4.9385474152e+03 +4.7520159135e+03 6.8902034554e+03 7.9829010000e+01 0.0000e+00 -1.0000e+00
       24  1    1    2    0    0 -2.6986525542e+03 +1.6501794917e+03 -3.5426416433e+03 4.7500000470e+03 7.9829010000e+01 0.0000e+00 1.0000e+00
       22  1    1    2    0    0 -3.2334999583e+02 +2.0727004284e+02 -4.1950555761e+02 5.6877148604e+02 0.0000000000e+00 0.0000e+00 1.0000e+00
       22  1    1    2    0    0 +3.7274280751e+03 -6.7959969498e+03 -7.8986871255e+02 7.7912250115e+03 0.0000000000e+00 0.0000e+00 -1.0000e+00
</event>
<event>
 6      1 +1.4834189e-01 1.01702300e+04 7.81653100e-03 6.92854800e-02
  1000022 -1    0    0    0    0 +0.0000000000e+00 +0.0000000000e+00 +4.4721471353e+01 1.0000100000e+04 1.0000000000e+04 0.0000e+00 1.0000e+00
  1000022 -1    0    0    0    0 -0.0000000000e+00 -0.0000000000e+00 -4.4721471353e+01 1.0000100000e+04 1.0000000000e+04 0.0000e+00 1.0000e+00
      -24  1    1    2    0    0 -4.5793375260e+03 +6.5000989743e+03 +5.7793016277e+03 9.8299704389e+03 7.9829010000e+01 0.0000e+00 1.0000e+00
       24  1    1    2    0    0 +3.1984656720e+03 -4.4182246330e+03 -4.8928672607e+03 7.3278519544e+03 7.9829010000e+01 0.0000e+00 1.0000e+00
       22  1    1    2    0    0 +8.3958735412e+02 -1.3210900999e+03 -1.5264058339e+01 1.5653814131e+03 0.0000000000e+00 0.0000e+00 1.0000e+00
       22  1    1    2    0    0 +5.4128449988e+02 -7.6078424145e+02 -8.7117030868e+02 1.2769961936e+03 0.0000000000e+00 0.0000e+00 1.0000e+00
</event>
<event>
 6      1 +1.4834189e-01 1.00010800e+04 7.81653100e-03 6.93866000e-02
  1000022 -1    0    0    0    0 +0.0000000000e+00 +0.0000000000e+00 +4.4721471353e+01 1.0000100000e+04 1.0000000000e+04 0.0000e+00 -1.0000e+00
  1000022 -1    0    0    0    0 -0.0000000000e+00 -0.0000000000e+00 -4.4721471353e+01 1.0000100000e+04 1.0000000000e+04 0.0000e+00 -1.0000e+00
      -24  1    1    2    0    0 +9.4620555701e+03 +1.0833408894e+03 -2.9763256692e+03 9.9784272435e+03 7.9829010000e+01 0.0000e+00 1.0000e+00
       24  1    1    2    0    0 -6.0386899503e+02 -1.1337515555e+02 +1.4965125359e+02 6.3740086099e+02 7.9829010000e+01 0.0000e+00 0.0000e+00
       22  1    1    2    0    0 +1.8112838857e+01 -6.0110901317e-01 +1.3588529770e+01 2.2651366511e+01 0.0000000000e+00 0.0000e+00 1.0000e+00
       22  1    1    2    0    0 -8.8762994139e+03 -9.6936462487e+02 +2.8130858858e+03 9.3617205290e+03 0.0000000000e+00 0.0000e+00 1.0000e+00
</event>
<event>
 6      1 +1.4834189e-01 1.00058200e+04 7.81653100e-03 6.93837400e-02
  1000022 -1    0    0    0    0 +0.0000000000e+00 +0.0000000000e+00 +4.4721471353e+01 1.0000100000e+04 1.0000000000e+04 0.0000e+00 -1.0000e+00
  1000022 -1    0    0    0    0 -0.0000000000e+00 -0.0000000000e+00 -4.4721471353e+01 1.0000100000e+04 1.0000000000e+04 0.0000e+00 -1.0000e+00
      -24  1    1    2    0    0 +4.3689216198e+03 -3.8489939458e+03 -8.0416448629e+03 9.9285777072e+03 7.9829010000e+01 0.0000e+00 1.0000e+00
       24  1    1    2    0    0 -4.4152075774e+03 +3.8297295283e+03 +8.0154064122e+03 9.9203829984e+03 7.9829010000e+01 0.0000e+00 1.0000e+00
       22  1    1    2    0    0 -1.6596023880e+01 +6.3359936940e+01 +3.4440685576e+01 7.4000475948e+01 0.0000000000e+00 0.0000e+00 1.0000e+00
       22  1    1    2    0    0 +6.2881981437e+01 -4.4095519427e+01 -8.2022348626e+00 7.7238818477e+01 0.0000000000e+00 0.0000e+00 -1.0000e+00
</event>
<event>
 6      1 +1.4834189e-01 1.00103600e+04 7.81653100e-03 6.93810000e-02
  1000022 -1    0    0    0    0 +0.0000000000e+00 +0.0000000000e+00 +4.4721471353e+01 1.0000100000e+04 1.0000000000e+04 0.0000e+00 1.0000e+00
  1000022 -1    0    0    0    0 -0.0000000000e+00 -0.0000000000e+00 -4.4721471353e+01 1.0000100000e+04 1.0000000000e+04 0.0000e+00 1.0000e+00
      -24  1    1    2    0    0 +4.5085179158e+03 +4.2233416961e+02 +8.9042345611e+03 9.9898381237e+03 7.9829010000e+01 0.0000e+00 1.0000e+00
       24  1    1    2    0    0 -4.2681928623e+03 -3.2868061460e+02 -8.5302306565e+03 9.5444595961e+03 7.9829010000e+01 0.0000e+00 1.0000e+00
       22  1    1    2    0    0 -1.3209169755e+02 -3.4536203312e+00 -2.2428294059e+02 2.6031323726e+02 0.0000000000e+00 0.0000e+00 1.0000e+00
       22  1    1    2    0    0 -1.0823335597e+02 -9.0199934676e+01 -1.4972096393e+02 2.0558904300e+02 0.0000000000e+00 0.0000e+00 -1.0000e+00
</event>
<event>
 6      1 +1.4834189e-01 1.00018800e+04 7.81653100e-03 6.93861200e-02
  1000022 -1    0    0    0    0 +0.0000000000e+00 +0.0000000000e+00 +4.4721471353e+01 1.0000100000e+04 1.0000000000e+04 0.0000e+00 1.0000e+00
  1000022 -1    0    0    0    0 -0.0000000000e+00 -0.0000000000e+00 -4.4721471353e+01 1.0000100000e+04 1.0000000000e+04 0.0000e+00 1.0000e+00
      -24  1    1    2    0    0 +4.0737715539e+02 -8.7150526359e+02 +4.5165107803e+03 4.6185192292e+03 7.9829010000e+01 0.0000e+00 1.0000e+00
       24  1    1    2    0    0 -7.7046805778e+02 +1.7754048254e+03 -9.8088913375e+03 9.9983201221e+03 7.9829010000e+01 0.0000e+00 1.0000e+00
       22  1    1    2    0    0 +3.5815933139e+02 -8.9423065147e+02 +5.2788175463e+03 5.3659893078e+03 0.0000000000e+00 0.0000e+00 -1.0000e+00
       22  1    1    2    0    0 +4.9315709989e+00 -9.6689103600e+00 +1.3563010947e+01 1.7371340939e+01 0.0000000000e+00 0.0000e+00 -1.0000e+00
</event>
<event>
 6      1 +1.4834189e-01 1.00095500e+04 7.81653100e-03 6.93814900e-02
  1000022 -1    0    0    0    0 +0.0000000000e+00 +0.0000000000e+00 +4.4721471353e+01 1.0000100000e+04 1.0000000000e+04 0.0000e+00 1.0000e+00
  1000022 -1    0    0    0    0 -0.0000000000e+00 -0.0000000000e+00 -4.4721471353e+01 1.0000100000e+04 1.0000000000e+04 0.0000e+00 1.0000e+00
      -24  1    1    2    0    0 -8.9205258083e+03 +6.0431507067e+02 -2.9487562430e+03 9.4150153188e+03 7.9829010000e+01 0.0000e+00 1.0000e+00
       24  1    1    2    0    0 +9.4432960353e+03 -4.5124915900e+02 +3.1829281480e+03 9.9758142565e+03 7.9829010000e+01 0.0000e+00 1.0000e+00
       22  1    1    2    0    0 +2.2948695646e+00 -1.2910580168e+01 +6.9391428330e+00 1.4835808365e+01 0.0000000000e+00 0.0000e+00 -1.0000e+00
       22  1    1    2    0    0 -5.2506509660e+02 -1.4015533151e+02 -2.4111104788e+02 5.9453461634e+02 0.0000000000e+00 0.0000e+00 1.0000e+00
</event>
<event>
 6      1 +1.4834189e-01 1.06389600e+04 7.81653100e-03 6.90152900e-02
  1000022 -1    0    0    0    0 +0.0000000000e+00 +0.0000000000e+00 +4.4721471353e+01 1.0000100000e+04 1.0000000000e+04 0.0000e+00 1.0000e+00
  1000022 -1    0    0    0    0 -0.0000000000e+00 -0.0000000000e+00 -4.4721471353e+01 1.0000100000e+04 1.0000000000e+04 0.0000e+00 1.0000e+00
      -24  1    1    2    0    0 -5.2078874725e+02 -8.2830398569e+03 +3.3761670467e+03 8.9601811805e+03 7.9829010000e+01 0.0000e+00 1.0000e+00
       24  1    1    2    0    0 +1.1802037062e+02 +9.0939273890e+02 -5.9343919975e+02 1.0952016783e+03 7.9829010000e+01 0.0000e+00 0.0000e+00
       22  1    1    2    0    0 +6.8138794071e+02 +6.9715707492e+03 -4.3886557570e+03 8.2660382040e+03 0.0000000000e+00 0.0000e+00 1.0000e+00
       22  1    1    2    0    0 -2.7861956409e+02 +4.0207636880e+02 +1.6059279100e+03 1.6787789372e+03 0.0000000000e+00 0.0000e+00 1.0000e+00
</event>
<event>
 6      1 +1.4834189e-01 1.00082400e+04 7.81653100e-03 6.93822800e-02
  1000022 -1    0    0    0    0 +0.0000000000e+00 +0.0000000000e+00 +4.4721471353e+01 1.0000100000e+04 1.0000000000e+04 0.0000e+00 1.0000e+00
  1000022 -1    0    0    0    0 -0.0000000000e+00 -0.0000000000e+00 -4.4721471353e+01 1.0000100000e+04 1.0000000000e+04 0.0000e+00 1.0000e+00
      -24  1    1    2    0    0 -6.6508010581e+02 -6.1303674808e+03 -2.1173795375e+03 6.5202305001e+03 7.9829010000e+01 0.0000e+00 1.0000e+00
       24  1    1    2    0    0 +1.2870504614e+03 +9.2383509806e+03 +3.5425657275e+03 9.9779643382e+03 7.9829010000e+01 0.0000e+00 1.0000e+00
       22  1    1    2    0    0 -6.2211932661e+02 -3.1219705405e+03 -1.4256502648e+03 3.4880096315e+03 0.0000000000e+00 0.0000e+00 1.0000e+00
       22  1    1    2    0    0 +1.4897098218e-01 +1.3987040727e+01 +4.6407483387e-01 1.3995530219e+01 0.0000000000e+00 0.0000e+00 1.0000e+00
</event>
<event>
 6      1 +1.4834189e-01 1.00204600e+04 7.81653100e-03 6.93749200e-02
  1000022 -1    0    0    0    0 +0.0000000000e+00 +0.0000000000e+00 +4.4721471353e+01 1.0000100000e+04 1.0000000000e+04 0.0000e+00 -1.0000e+00
  1000022 -1    0    0    0    0 -0.0000000000e+00 -0.0000000000e+00 -4.4721471353e+01 1.0000100000e+04 1.0000000000e+04 0.0000e+00 -1.0000e+00
      -24  1    1    2    0    0 +2.7536641223e+02 +2.5271008960e+02 -6.5044166242e+02 7.5441107987e+02 7.9829010000e+01 0.0000e+00 1.0000e+00
       24  1    1    2    0    0 -7.6657153558e+02 -4.0571547569e+03 +8.5812628550e+03 9.5232652750e+03 7.9829010000e+01 0.0000e+00 1.0000e+00
       22  1    1    2    0    0 +5.3153498199e+02 +3.9968053737e+03 -8.3428192183e+03 9.2660463598e+03 0.0000000000e+00 0.0000e+00 1.0000e+00
       22  1    1    2    0    0 -4.0329858641e+01 -1.9236070639e+02 +4.1199802572e+02 4.5647728537e+02 0.0000000000e+00 0.0000e+00 1.0000e+00
</event>
<event>
 6      1 +1.4834189e-01 1.00022200e+04 7.81653100e-03 6.93859100e-02
  1000022 -1    0    0    0    0 +0.0000000000e+00 +0.0000000000e+00 +4.4721471353e+01 1.0000100000e+04 1.0000000000e+04 0.0000e+00 1.0000e+00
  1000022 -1    0    0    0    0 -0.0000000000e+00 -0.0000000000e+00 -4.4721471353e+01 1.0000100000e+04 1.0000000000e+04 0.0000e+00 1.0000e+00
      -24  1    1    2    0    0 +2.4155186317e+03 +9.2961532687e+03 +1.0032950810e+03 9.6574411490e+03 7.9829010000e+01 0.0000e+00 -1.0000e+00
       24  1    1    2    0    0 -2.4318668309e+03 -9.5268550881e+03 -1.0674038580e+03 9.8904331462e+03 7.9829010000e+01 0.0000e+00 -1.0000e+00
       22  1    1    2    0    0 -2.8546937007e+01 -1.0332935081e+02 -8.5752748169e+00 1.0754263196e+02 0.0000000000e+00 0.0000e+00 -1.0000e+00
       22  1    1    2    0    0 +4.4895136184e+01 +3.3403117021e+02 +7.2684051834e+01 3.4478307283e+02 0.0000000000e+00 0.0000e+00 -1.0000e+00
</event>
<event>
 6      1 +1.4834189e-01 1.01427300e+04 7.81653100e-03 6.93017800e-02
  1000022 -1    0    0    0    0 +0.0000000000e+00 +0.0000000000e+00 +4.4721471353e+01 1.0000100000e+04 1.0000000000e+04 0.0000e+00 1.0000e+00
  1000022 -1    0    0    0    0 -0.0000000000e+00 -0.0000000000e+00 -4.4721471353e+01 1.0000100000e+04 1.0000000000e+04 0.0000e+00 1.0000e+00
      -24  1    1    2    0    0 +8.0368103184e+03 +4.0212470715e+03 -1.7666720059e+03 9.1590529396e+03 7.9829010000e+01 0.0000e+00 1.0000e+00
       24  1    1    2    0    0 -1.5970885838e+03 -1.7107135856e+03 -1.4418832041e+02 2.3461448931e+03 7.9829010000e+01 0.0000e+00 1.0000e+00
       22  1    1    2    0    0 -7.0712351615e+03 -2.5870103758e+03 +2.0228169135e+03 7.7965875651e+03 0.0000000000e+00 0.0000e+00 1.0000e+00
       22  1    1    2    0    0 +6.3151342701e+02 +2.7647689000e+02 -1.1195658725e+02 6.9841460224e+02 0.0000000000e+00 0.0000e+00 1.0000e+00
</event>
<event>
 6      1 +1.4834189e-01 1.00155900e+04 7.81653100e-03 6.93778500e-02
  1000022 -1    0    0    0    0 +0.0000000000e+00 +0.0000000000e+00 +4.4721471353e+01 1.0000100000e+04 1.0000000000e+04 0.0000e+00 1.0000e+00
  1000022 -1    0    0    0    0 -0.0000000000e+00 -0.0000000000e+00 -4.4721471353e+01 1.0000100000e+04 1.0000000000e+04 0.0000e+00 1.0000e+00
      -24  1    1    2    0    0 +2.1984070861e+02 -3.0995568319e+02 +1.9614244753e+02 4.3502527888e+02 7.9829010000e+01 0.0000e+00 1.0000e+00
       24  1    1    2    0    0 -1.7352484024e+03 +1.9124780346e+03 -1.3752895060e+02 2.5872661506e+03 7.9829010000e+01 0.0000e+00 -1.0000e+00
       22  1    1    2    0    0 -4.1776163074e+03 +6.0728496483e+03 +6.2351205240e+02 7.3973473720e+03 0.0000000000e+00 0.0000e+00 -1.0000e+00
       22  1    1    2    0    0 +5.6930240012e+03 -7.6753719998e+03 -6.8212554933e+02 9.5805611985e+03 0.0000000000e+00 0.0000e+00 -1.0000e+00
</event>
<event>
 6      1 +1.4834189e-01 1.00263000e+04 7.81653100e-03 6.93714000e-02
  1000022 -1    0    0    0    0 +0.0000000000e+00 +0.0000000000e+00 +4.4721471353e+01 1.0000100000e+04 1.0000000000e+04 0.0000e+00 -1.0000e+00
  1000022 -1    0    0    0    0 -0.0000000000e+00 -0.0000000000e+00 -4.4721471353e+01 1.0000100000e+04 1.0000000000e+04 0.0000e+00 -1.0000e+00
      -24  1    1    2    0    0 -5.3697098421e+03 -1.1746768402e+03 -6.9987496462e+03 8.8995796950e+03 7.9829010000e+01 0.0000e+00 -1.0000e+00
       24  1    1    2    0    0 +6.1492315612e+03 +1.4140591358e+03 +7.7239644999e+03 9.9738965455e+03 7.9829010000e+01 0.0000e+00 -1.0000e+00
       22  1    1    2    0    0 -7.7853903675e+02 -1.7753508242e+02 -6.9124863509e+02 1.0561564338e+03 0.0000000000e+00 0.0000e+00 -1.0000e+00
       22  1    1    2    0    0 -9.8268237401e-01 -6.1847213195e+01 -3.3966218625e+01 7.0567325671e+01 0.0000000000e+00 0.0000e+00 -1.0000e+00
</event>
<event>
 6      1 +1.4834189e-01 1.00146900e+04 7.81653100e-03 6.93783900e-02
  1000022 -1    0    0    0    0 +0.0000000000e+00 +0.0000000000e+00 +4.4721471353e+01 1.0000100000e+04 1.0000000000e+04 0.0000e+00 1.0000e+00
  1000022 -1    0    0    0    0 -0.0000000000e+00 -0.0000000000e+00 -4.4721471353e+01 1.0000100000e+04 1.0000000000e+04 0.0000e+00 1.0000e+00
      -24  1    1    2    0    0 -5.0663734718e+03 +4.0425239924e+03 +7.3457237598e+03 9.7967428573e+03 7.9829010000e+01 0.0000e+00 -1.0000e+00
       24  1    1    2    0    0 +3.5208951497e+03 -2.9970857927e+03 -4.7370358505e+03 6.6200534155e+03 7.9829010000e+01 0.0000e+00 -1.0000e+00
       22  1    1    2    0    0 -9.9185223492e+01 +7.9154339976e+01 +1.3975165427e+02 1.8876875527e+02 0.0000000000e+00 0.0000e+00 1.0000e+00
       22  1    1    2    0    0 +1.6446635456e+03 -1.1245925397e+03 -2.7484395635e+03 3.3946349720e+03 0.0000000000e+00 0.0000e+00 1.0000e+00
</event>
<event>
 6      1 +1.4834189e-01 1.03657200e+04 7.81653100e-03 6.91710500e-02
  1000022 -1    0    0    0    0 +0.0000000000e+00 +0.0000000000e+00 +4.4721471353e+01 1.0000100000e+04 1.0000000000e+04 0.0000e+00 -1.0000e+00
  1000022 -1    0    0    0    0 -0.0000000000e+00 -0.0000000000e+00 -4.4721471353e+01 1.0000100000e+04 1.0000000000e+04 0.0000e+00 -1.0000e+00
      -24  1    1    2    0    0 -2.8692304428e+03 -8.4636365260e+03 +3.2513910977e+03 9.5101810350e+03 7.9829010000e+01 0.0000e+00 1.0000e+00
       24  1    1    2    0    0 +3.1049321463e+03 +8.1352781031e+03 -3.9937640496e+03 9.5801814911e+03 7.9829010000e+01 0.0000e+00 1.0000e+00
       22  1    1    2    0    0 -2.5453556908e+02 +2.8329574993e+02 +7.6609684808e+02 8.5554030793e+02 0.0000000000e+00 0.0000e+00 1.0000e+00
       22  1    1    2    0    0 +1.8833865541e+01 +4.5062672922e+01 -2.3723896111e+01 5.4297165937e+01 0.0000000000e+00 0.0000e+00 1.0000e+00
</event>
<event>
 6      1 +1.4834189e-01 1.00677200e+04 7.81653100e-03 6.93465300e-02
  1000022 -1    0    0    0    0 +0.0000000000e+00 +0.0000000000e+00 +4.4721471353e+01 1.0000100000e+04 1.0000000000e+04 0.0000e+00 1.0000e+00
  1000022 -1    0    0    0    0 -0.0000000000e+00 -0.0000000000e+00 -4.4721471353e+01 1.0000100000e+04 1.0000000000e+04 0.0000e+00 1.0000e+00
      -24  1    1    2    0    0 +1.0676683628e+03 +4.8130906590e+03 -1.2355653366e+03 5.0831832346e+03 7.9829010000e+01 0.0000e+00 -1.0000e+00
       24  1    1    2    0    0 -3.4653988366e+02 +1.0801309873e+02 -4.3573293027e+02 5.7270636265e+02 7.9829010000e+01 0.0000e+00 -1.0000e+00
       22  1    1    2    0    0 -4.6726623631e+03 -7.4113466136e+03 +3.3515125406e+03 9.3805366848e+03 0.0000000000e+00 0.0000e+00 -1.0000e+00
       22  1    1    2    0    0 +3.9515338840e+03 +2.4902428558e+03 -1.6802142737e+03 4.9637737179e+03 0.0000000000e+00 0.0000e+00 1.0000e+00
</event>
<event>
 6      1 +1.4834189e-01 1.00001300e+04 7.81653100e-03 6.93871800e-02
  1000022 -1    0    0    0    0 +0.0000000000e+00 +0.0000000000e+00 +4.4721471353e+01 1.0000100000e+04 1.0000000000e+04 0.0000e+00 1.0000e+00
  1000022 -1    0    0    0    0 -0.0000000000e+00 -0.0000000000e+00 -4.4721471353e+01 1.0000100000e+04 1.0000000000e+04 0.0000e+00 1.0000e+00
      -24  1    1    2    0    0 +3.4845860112e+02 +8.7697356965e+03 -4.2387921068e+03 9.7469697229e+03 7.9829010000e+01 0.0000e+00 -1.0000e+00
       24  1    1    2    0    0 -3.5567918188e+02 -8.9727661092e+03 +4.3496432598e+03 9.9781164800e+03 7.9829010000e+01 0.0000e+00 -1.0000e+00
       22  1    1    2    0    0 -3.3644996532e+00 -1.9908391056e+01 +8.6265909216e+00 2.1956364984e+01 0.0000000000e+00 0.0000e+00 -1.0000e+00
       22  1    1    2    0    0 +1.0585080420e+01 +2.2293880374e+02 -1.1947774395e+02 2.5315743212e+02 0.0000000000e+00 0.0000e+00 1.0000e+00
</event>
<event>
 6      1 +1.4834189e-01 1.00440500e+04 7.81653100e-03 6.93607200e-02
  1000022 -1    0    0    0    0 +0.0000000000e+00 +0.0000000000e+00 +4.4721471353e+01 1.0000100000e+04 1.0000000000e+04 0.0000e+00 1.0000e+00
  1000022 -1    0    0    0    0 -0.0000000000e+00 -0.0000000000e+00 -4.4721471353e+01 1.0000100000e+04 1.0000000000e+04 0.0000e+00 1.0000e+00
      -24  1    1    2    0    0 +4.5560156917e+03 +8.1695783300e+03 -3.4086897514e+03 9.9561452162e+03 7.9829010000e+01 0.0000e+00 -1.0000e+00
       24  1    1    2    0    0 -6.5357624004e+02 -1.1013314296e+03 +5.3086974270e+02 1.3886281626e+03 7.9829010000e+01 0.0000e+00 1.0000e+00
       22  1    1    2    0    0 -1.1869217142e+02 -9.3525848812e+01 +2.5832556542e+02 2.9927748613e+02 0.0000000000e+00 0.0000e+00 1.0000e+00
       22  1    1    2    0    0 -3.7837472803e+03 -6.9747210516e+03 +2.6194944433e+03 8.3561491351e+03 0.0000000000e+00 0.0000e+00 -1.0000e+00
</event>
<event>
 6      1 +1.4834189e-01 1.01891000e+04 7.81653100e-03 6.92743200e-02
  1000022 -1    0    0    0    0 +0.0000000000e+00 +0.0000000000e+00 +4.4721471353e+01 1.0000100000e+04 1.0000000000e+04 0.0000e+00 1.0000e+00
  1000022 -1    0    0    0    0 -0.0000000000e+00 -0.0000000000e+00 -4.4721471353e+01 1.0000100000e+04 1.0000000000e+04 0.0000e+00 1.0000e+00
      -24  1    1    2    0    0 +1.1174726498e+03 +6.4924261085e+03 +7.2698680507e+03 9.8111006540e+03 7.9829010000e+01 0.0000e+00 -1.0000e+00
       24  1    1    2    0    0 -1.9982616915e+03 -4.7812617028e+03 -4.9319816086e+03 7.1543223659e+03 7.9829010000e+01 0.0000e+00 -1.0000e+00
       22  1    1    2    0    0 +8.8939588984e+02 -1.6706154719e+03 -2.3003255813e+03 2.9788385126e+03 0.0000000000e+00 0.0000e+00 -1.0000e+00
       22  1    1    2    0    0 -8.6068481855e+00 -4.0548933899e+01 -3.7560860807e+01 5.5938467450e+01 0.0000000000e+00 0.0000e+00 -1.0000e+00
</event>
<event>
 6      1 +1.4834189e-01 1.02024700e+04 7.81653100e-03 6.92664300e-02
  1000022 -1    0    0    0    0 +0.0000000000e+00 +0.0000000000e+00 +4.4721471353e+01 1.0000100000e+04 1.0000000000e+04 0.0000e+00 -1.0000e+00
  1000022 -1    0    0    0    0 -0.0000000000e+00 -0.0000000000e+00 -4.4721471353e+01 1.0000100000e+04 1.0000000000e+04 0.0000e+00 -1.0000e+00
      -24  1    1    2    0    0 -6.8784254561e+03 -2.3006756011e+03 -6.4020512842e+03 9.6746306541e+03 7.9829010000e+01 0.0000e+00 -1.0000e+00
       24  1    1    2    0    0 +7.1760193833e+03 +2.3282707755e+03 +5.8787231628e+03 9.5646148741e+03 7.9829010000e+01 0.0000e+00 -1.0000e+00
       22  1    1    2    0    0 -2.0830369735e+02 +1.6038670177e+00 +6.0287994444e+02 6.3785361183e+02 0.0000000000e+00 0.0000e+00 1.0000e+00
       22  1    1    2    0    0 -8.9290229920e+01 -2.9199041446e+01 -7.9551823024e+01 1.2310085998e+02 0.0000000000e+00 0.0000e+00 -1.0000e+00
</event>
<event>
 6      1 +1.4834189e-01 1.00069600e+04 7.81653100e-03 6.93830500e-02
  1000022 -1    0    0    0    0 +0.0000000000e+00 +0.0000000000e+00 +4.4721471353e+01 1.0000100000e+04 1.0000000000e+04 0.0000e+00 1.0000e+00
  1000022 -1    0    0    0    0 -0.0000000000e+00 -0.0000000000e+00 -4.4721471353e+01 1.0000100000e+04 1.0000000000e+04 0.0000e+00 1.0000e+00
      -24  1    1    2    0    0 +1.4346011833e+03 -8.9082001139e+03 +3.4826365355e+03 9.6720855937e+03 7.9829010000e+01 0.0000e+00 -1.0000e+00
       24  1    1    2    0    0 -1.3144588214e+03 +8.5040167410e+03 -3.2882443277e+03 9.2122215645e+03 7.9829010000e+01 0.0000e+00 -1.0000e+00
       22  1    1    2    0    0 -2.2632525316e+01 -3.2961329207e+02 +5.4643730625e+01 3.3487772516e+02 0.0000000000e+00 0.0000e+00 -1.0000e+00
       22  1    1    2    0    0 -9.7509836551e+01 +7.3379666494e+02 -2.4903593842e+02 7.8101511658e+02 0.0000000000e+00 0.0000e+00 -1.0000e+00
</event>
<event>
 6      1 +1.4834189e-01 1.00009000e+04 7.81653100e-03 6.93867100e-02
  1000022 -1    0    0    0    0 +0.0000000000e+00 +0.0000000000e+00 +4.4721471353e+01 1.0000100000e+04 1.0000000000e+04 0.0000e+00 1.0000e+00
  1000022 -1    0    0    0    0 -0.0000000000e+00 -0.0000000000e+00 -4.4721471353e+01 1.0000100000e+04 1.0000000000e+04 0.0000e+00 1.0000e+00
      -24  1    1    2    0    0 -5.2725531675e+03 +7.2610996448e+03 +4.2284477066e+03 9.9201576416e+03 7.9829010000e+01 0.0000e+00 1.0000e+00
       24  1    1    2    0    0 -2.9438133373e+00 -5.0232735265e+01 -4.4748550862e+01 1.0443704980e+02 7.9829010000e+01 0.0000e+00 -1.0000e+00
       22  1    1    2    0    0 +5.2344532278e+03 -7.2454975914e+03 -4.2439978736e+03 9.8948599734e+03 0.0000000000e+00 0.0000e+00 1.0000e+00
       22  1    1    2    0    0 +4.1043753012e+01 +3.4630681885e+01 +6.0298717863e+01 8.0745335253e+01 0.0000000000e+00 0.0000e+00 -1.0000e+00
</event>
<event>
 6      1 +1.4834189e-01 7.60885000e+03 7.81653100e-03 7.10781300e-02
  1000022 -1    0    0    0    0 +0.0000000000e+00 +0.0000000000e+00 +4.4721471353e+01 1.0000100000e+04 1.0000000000e+04 0.0000e+00 1.0000e+00
  1000022 -1    0    0    0    0 -0.0000000000e+00 -0.0000000000e+00 -4.4721471353e+01 1.0000100000e+04 1.0000000000e+04 0.0000e+00 1.0000e+00
      -24  1    1    2    0    0 -4.6961703227e+02 +2.9926654996e+02 -5.0886226828e+02 7.5856054725e+02 7.9829010000e+01 0.0000e+00 0.0000e+00
       24  1    1    2    0    0 +3.8539784225e+03 -7.3984573571e+03 +3.3842774910e+03 9.0027788906e+03 7.9829010000e+01 0.0000e+00 -1.0000e+00
       22  1    1    2    0    0 -2.9095249413e+03 +4.2112791681e+02 -1.8297900646e+03 3.4627757344e+03 0.0000000000e+00 0.0000e+00 -1.0000e+00
       22  1    1    2    0    0 -4.7483644890e+02 +6.6780628904e+03 -1.0456251581e+03 6.7760848277e+03 0.0000000000e+00 0.0000e+00 -1.0000e+00
</event>
<event>
 6      1 +1.4834189e-01 1.00051600e+04 7.81653100e-03 6.93841400e-02
  1000022 -1    0    0    0    0 +0.0000000000e+00 +0.0000000000e+00 +4.4721471353e+01 1.0000100000e+04 1.0000000000e+04 0.0000e+00 -1.0000e+00
  1000022 -1    0    0    0    0 -0.0000000000e+00 -0.0000000000e+00 -4.4721471353e+01 1.0000100000e+04 1.0000000000e+04 0.0000e+00 -1.0000e+00
      -24  1    1    2    0    0 +1.8753764788e+03 +9.7983323661e+03 +1.0428151670e+02 9.9770537434e+03 7.9829010000e+01 0.0000e+00 -1.0000e+00
       24  1    1    2    0    0 -1.8873469598e+03 -9.7821430028e+03 -1.0969071223e+02 9.9634735407e+03 7.9829010000e+01 0.0000e+00 -1.0000e+00
       22  1    1    2    0    0 +2.3834421769e+01 +1.3010272889e+01 +7.2369461917e+00 2.8101961709e+01 0.0000000000e+00 0.0000e+00 -1.0000e+00
       22  1    1    2    0    0 -1.1863940773e+01 -2.9199636191e+01 -1.8277506660e+00 3.1570754138e+01 0.0000000000e+00 0.0000e+00 -1.0000e+00
</event>
<event>
 6      1 +1.4834189e-01 1.00107400e+04 7.81653100e-03 6.93807700e-02
  1000022 -1    0    0    0    0 +0.0000000000e+00 +0.0000000000e+00 +4.4721471353e+01 1.0000100000e+04 1.0000000000e+04 0.0000e+00 -1.0000e+00
  1000022 -1    0    0    0    0 -0.0000000000e+00 -0.0000000000e+00 -4.4721471353e+01 1.0000100000e+04 1.0000000000e+04 0.0000e+00 -1.0000e+00
      -24  1    1    2    0    0 +1.4175281426e+03 +8.7366418609e+02 +1.4841925777e+03 2.2320115196e+03 7.9829010000e+01 0.0000e+00 0.0000e+00
       24  1    1    2    0    0 -6.3434178897e+03 -4.0870758026e+03 -6.5185064801e+03 9.9719826786e+03 7.9829010000e+01 0.0000e+00 -1.0000e+00
       22  1    1    2    0    0 +4.9468142029e+03 +3.1876338619e+03 +5.0543082918e+03 7.7574488528e+03 0.0000000000e+00 0.0000e+00 -1.0000e+00
       22  1    1    2    0    0 -2.0924455898e+01 +2.5777754619e+01 -1.9994389354e+01 3.8756948970e+01 0.0000000000e+00 0.0000e+00 1.0000e+00
</event>
<event>
 6      1 +1.4834189e-01 9.93988700e+03 7.81653100e-03 6.94236800e-02
  1000022 -1    0    0    0    0 +0.0000000000e+00 +0.0000000000e+00 +4.4721471353e+01 1.0000100000e+04 1.0000000000e+04 0.0000e+00 1.0000e+00
  1000022 -1    0    0    0    0 -0.0000000000e+00 -0.0000000000e+00 -4.4721471353e+01 1.0000100000e+04 1.0000000000e+04 0.0000e+00 1.0000e+00
      -24  1    1    2    0    0 -6.4853887851e+01 +6.1410400575e+01 +2.2325241285e+01 1.2185381120e+02 7.9829010000e+01 0.0000e+00 1.0000e+00
       24  1    1    2    0    0 -1.0071519389e+03 -1.5854989068e+03 -8.9216897151e+02 2.0809853330e+03 7.9829010000e+01 0.0000e+00 0.0000e+00
       22  1    1    2    0    0 -3.8762527595e+03 -5.9951497314e+03 -3.3144500668e+03 7.8710059714e+03 0.0000000000e+00 0.0000e+00 -1.0000e+00
       22  1    1    2    0    0 +4.9482585862e+03 +7.5192382376e+03 +4.1842937970e+03 9.9263548844e+03 0.0000000000e+00 0.0000e+00 -1.0000e+00
</event>
<event>
 6      1 +1.4834189e-01 1.02031800e+04 7.81653100e-03 6.92660100e-02
  1000022 -1    0    0    0    0 +0.0000000000e+00 +0.0000000000e+00 +4.4721471353e+01 1.0000100000e+04 1.0000000000e+04 0.0000e+00 -1.0000e+00
  1000022 -1    0    0    0    0 -0.0000000000e+00 -0.0000000000e+00 -4.4721471353e+01 1.0000100000e+04 1.0000000000e+04 0.0000e+00 -1.0000e+00
      -24  1    1    2    0    0 -4.7790231038e+03 +3.2560799064e+03 -1.0445806011e+03 5.8769583533e+03 7.9829010000e+01 0.0000e+00 1.0000e+00
       24  1    1    2    0    0 +8.7410170980e+03 -3.3899390388e+03 +2.6183811725e+03 9.7344419064e+03 7.9829010000e+01 0.0000e+00 1.0000e+00
       22  1    1    2    0    0 +6.1659184778e+01 -4.6260285843e+00 +9.6255745141e+00 6.2577207453e+01 0.0000000000e+00 0.0000e+00 -1.0000e+00
       22  1    1    2    0    0 -4.0236531790e+03 +1.3848516102e+02 -1.5834261459e+03 4.3262225329e+03 0.0000000000e+00 0.0000e+00 1.0000e+00
</event>
<event>
 6      1 +1.4834189e-01 1.00013800e+04 7.81653100e-03 6.93864200e-02
  1000022 -1    0    0    0    0 +0.0000000000e+00 +0.0000000000e+00 +4.4721471353e+01 1.0000100000e+04 1.0000000000e+04 0.0000e+00 -1.0000e+00
  1000022 -1    0    0    0    0 -0.0000000000e+00 -0.0000000000e+00 -4.4721471353e+01 1.0000100000e+04 1.0000000000e+04 0.0000e+00 -1.0000e+00
      -24  1    1    2    0    0 +2.4188454999e+03 -7.7825641398e+03 +5.6811497180e+03 9.9348353248e+03 7.9829010000e+01 0.0000e+00 1.0000e+00
       24  1    1    2    0    0 -2.1006268673e+03 +6.9509203181e+03 -5.1102004342e+03 8.8796648390e+03 7.9829010000e+01 0.0000e+00 1.0000e+00
       22  1    1    2    0    0 +1.6888834894e+01 -5.0587461311e+01 +3.5357603714e+01 6.3988156141e+01 0.0000000000e+00 0.0000e+00 -1.0000e+00
       22  1    1    2    0    0 -3.3510746744e+02 +8.8223128298e+02 -6.0630688755e+02 1.1217116801e+03 0.0000000000e+00 0.0000e+00 1.0000e+00
</event>
<event>
 6      1 +1.4834189e-01 1.02138000e+04 7.81653100e-03 6.92597500e-02
  1000022 -1    0    0    0    0 +0.0000000000e+00 +0.0000000000e+00 +4.4721471353e+01 1.0000100000e+04 1.0000000000e+04 0.0000e+00 -1.0000e+00
  1000022 -1    0    0    0    0 -0.0000000000e+00 -0.0000000000e+00 -4.4721471353e+01 1.0000100000e+04 1.0000000000e+04 0.0000e+00 -1.0000e+00
      -24  1    1    2    0    0 -5.8682602320e+02 -8.6417507575e+02 +1.1252192898e+03 1.5374181162e+03 7.9829010000e+01 0.0000e+00 -1.0000e+00
       24  1    1    2    0    0 +3.7613569652e+03 -6.0880466114e+02 -9.0138078310e+03 9.7863963552e+03 7.9829010000e+01 0.0000e+00 -1.0000e+00
       22  1    1    2    0    0 -3.0896745076e+03 +1.5832520886e+03 +7.6312434520e+03 8.3838327967e+03 0.0000000000e+00 0.0000e+00 -1.0000e+00
       22  1    1    2    0    0 -8.4856434441e+01 -1.1027235175e+02 +2.5734508923e+02 2.9255273196e+02 0.0000000000e+00 0.0000e+00 -1.0000e+00
</event>
<event>
 6      1 +1.4834189e-01 1.00119300e+04 7.81653100e-03 6.93800500e-02
  1000022 -1    0    0    0    0 +0.0000000000e+00 +0.0000000000e+00 +4.4721471353e+01 1.0000100000e+04 1.0000000000e+04 0.0000e+00 -1.0000e+00
  1000022 -1    0    0    0    0 -0.0000000000e+00 -0.0000000000e+00 -4.4721471353e+01 1.0000100000e+04 1.0000000000e+04 0.0000e+00 -1.0000e+00
      -24  1    1    2    0    0 -3.5400974249e+03 -7.8789776169e+03 -4.5540061625e+03 9.7650357329e+03 7.9829010000e+01 0.0000e+00 -1.0000e+00
       24  1    1    2    0    0 +2.5619515385e+00 +1.5813597283e+02 +9.6120172057e+01 2.0155720730e+02 7.9829010000e+01 0.0000e+00 -1.0000e+00
       22  1    1    2    0    0 -9.9693138326e+01 -1.8939310593e+02 -6.3426244325e+01 2.2322938622e+02 0.0000000000e+00 0.0000e+00 -1.0000e+00
       22  1    1    2    0    0 +3.6372286117e+03 +7.9102347500e+03 +4.5213122347e+03 9.8103776736e+03 0.0000000000e+00 0.0000e+00 -1.0000e+00
</event>
<event>
 6      1 +1.4834189e-01 7.59671600e+03 7.81653100e-03 7.10882500e-02
  1000022 -1    0    0    0    0 +0.0000000000e+00 +0.0000000000e+00 +4.4721471353e+01 1.0000100000e+04 1.0000000000e+04 0.0000e+00 -1.0000e+00
  1000022 -1    0    0    0    0 -0.0000000000e+00 -0.0000000000e+00 -4.4721471353e+01 1.0000100000e+04 1.0000000000e+04 0.0000e+00 -1.0000e+00
      -24  1    1    2    0    0 -3.1421356346e+03 -2.2986102449e+03 -8.2501461411e+02 3.9804079173e+03 7.9829010000e+01 0.0000e+00 -1.0000e+00
       24  1    1    2    0    0 +1.2521649613e+03 -5.8331378185e+03 +3.3535614526e+03 6.8444255411e+03 7.9829010000e+01 0.0000e+00 -1.0000e+00
       22  1    1    2    0    0 -1.8201701026e+02 -1.7243697058e+02 +5.8989005240e-01 2.5072903465e+02 0.0000000000e+00 0.0000e+00 1.0000e+00
       22  1    1    2    0    0 +2.0719876835e+03 +8.3041850340e+03 -2.5291367285e+03 8.9246375070e+03 0.0000000000e+00 0.0000e+00 -1.0000e+00
</event>
<event>
 6      1 +1.4834189e-01 1.00040600e+04 7.81653100e-03 6.93848000e-02
  1000022 -1    0    0    0    0 +0.0000000000e+00 +0.0000000000e+00 +4.4721471353e+01 1.0000100000e+04 1.0000000000e+04 0.0000e+00 1.0000e+00
  1000022 -1    0    0    0    0 -0.0000000000e+00 -0.0000000000e+00 -4.4721471353e+01 1.0000100000e+04 1.0000000000e+04 0.0000e+00 1.0000e+00
      -24  1    1    2    0    0 +3.2817022303e+03 -3.8934324724e+03 +4.3116482946e+03 6.6727108159e+03 7.9829010000e+01 0.0000e+00 1.0000e+00
       24  1    1    2    0    0 -4.8755947406e+03 +6.0249808250e+03 -6.2944083838e+03 9.9848769441e+03 7.9829010000e+01 0.0000e+00 1.0000e+00
       22  1    1    2    0    0 +1.5950716802e+03 -2.1474724033e+03 +1.9721213355e+03 3.3234250330e+03 0.0000000000e+00 0.0000e+00 1.0000e+00
       22  1    1    2    0    0 -1.1791699508e+00 +1.5924050677e+01 +1.0638753736e+01 1.9187207008e+01 0.0000000000e+00 0.0000e+00 -1.0000e+00
</event>
<event>
 6      1 +1.4834189e-01 1.00843300e+04 7.81653100e-03 6.93365900e-02
  1000022 -1    0    0    0    0 +0.0000000000e+00 +0.0000000000e+00 +4.4721471353e+01 1.0000100000e+04 1.0000000000e+04 0.0000e+00 1.0000e+00
  1000022 -1    0    0    0    0 -0.0000000000e+00 -0.0000000000e+00 -4.4721471353e+01 1.0000100000e+04 1.0000000000e+04 0.0000e+00 1.0000e+00
      -24  1    1    2    0    0 +6.9386461586e+02 -8.9890000232e+03 +3.8857562172e+03 9.8177921944e+03 7.9829010000e+01 0.0000e+00 1.0000e+00
       24  1    1    2    0    0 -5.2998799554e+02 +6.1019249287e+03 -3.5724351508e+03 7.0910535669e+03 7.9829010000e+01 0.0000e+00 1.0000e+00
       22  1    1    2    0    0 -1.2708639528e+02 +2.9760348145e+03 -2.9455679761e+02 2.9932754427e+03 0.0000000000e+00 0.0000e+00 1.0000e+00
       22  1    1    2    0    0 -3.6790225035e+01 -8.8959720023e+01 -1.8764268826e+01 9.8078796023e+01 0.0000000000e+00 0.0000e+00 -1.0000e+00
</event>
<event>
 6      1 +1.4834189e-01 1.05710200e+04 7.81653100e-03 6.90535800e-02
  1000022 -1    0    0    0    0 +0.0000000000e+00 +0.0000000000e+00 +4.4721471353e+01 1.0000100000e+04 1.0000000000e+04 0.0000e+00 1.0000e+00
  1000022 -1    0    0    0    0 -0.0000000000e+00 -0.0000000000e+00 -4.4721471353e+01 1.0000100000e+04 1.0000000000e+04 0.0000e+00 1.0000e+00
      -24  1    1    2    0    0 -1.0009159926e+02 +1.9539002761e+02 +4.5567110361e+01 2.3800130991e+02 7.9829010000e+01 0.0000e+00 -1.0000e+00
       24  1    1    2    0    0 +6.5865758123e+03 -6.6237096230e+03 +1.2832174365e+03 9.4291849999e+03 7.9829010000e+01 0.0000e+00 1.0000e+00
       22  1    1    2    0    0 -5.4037969809e+03 +2.1278764666e+03 -5.9468005273e+02 5.8380240178e+03 0.0000000000e+00 0.0000e+00 -1.0000e+00
       22  1    1    2    0    0 -1.0826872321e+03 +4.3004431288e+03 -7.3410449413e+02 4.4949896724e+03 0.0000000000e+00 0.0000e+00 1.0000e+00
</event>
<event>
 6      1 +1.4834189e-01 1.04710600e+04 7.81653100e-03 6.91104400e-02
  1000022 -1    0    0    0    0 +0.0000000000e+00 +0.0000000000e+00 +4.4721471353e+01 1.0000100000e+04 1.0000000000e+04 0.0000e+00 1.0000e+00
  1000022 -1    0    0    0    0 -0.0000000000e+00 -0.0000000000e+00 -4.4721471353e+01 1.0000100000e+04 1.0000000000e+04 0.0000e+00 1.0000e+00
      -24  1    1    2    0    0 +8.9550103392e+03 -3.2564628258e+03 +3.8099548247e+01 9.5291439572e+03 7.9829010000e+01 0.0000e+00 -1.0000e+00
       24  1    1    2    0    0 -2.1371550106e+03 -2.8111228809e+02 +8.3932223289e+02 2.3145820658e+03 7.9829010000e+01 0.0000e+00 -1.0000e+00
       22  1    1    2    0    0 -8.2585465260e+01 +6.3553808943e+02 +3.3484710590e+02 7.2308478516e+02 0.0000000000e+00 0.0000e+00 -1.0000e+00
       22  1    1    2    0    0 -6.7352698633e+03 +2.9020370244e+03 -1.2122688870e+03 7.4333891918e+03 0.0000000000e+00 0.0000e+00 -1.0000e+00
</event>
<event>
 6      1 +1.4834189e-01 1.00199300e+04 7.81653100e-03 6.93752400e-02
  1000022 -1    0    0    0    0 +0.0000000000e+00 +0.0000000000e+00 +4.4721471353e+01 1.0000100000e+04 1.0000000000e+04 0.0000e+00 -1.0000e+00
  1000022 -1    0    0    0    0 -0.0000000000e+00 -0.0000000000e+00 -4.4721471353e+01 1.0000100000e+04 1.0000000000e+04 0.0000e+00 -1.0000e+00
      -24  1    1    2    0    0 -8.0820833827e+03 -5.0896136078e+03 +2.7358854900e+03 9.9355765091e+03 7.9829010000e+01 0.0000e+00 1.0000e+00
       24  1    1    2    0    0 +7.2450874426e+03 +4.2600687336e+03 -2.2227038932e+03 8.6940360554e+03 7.9829010000e+01 0.0000e+00 1.0000e+00
       22  1    1    2    0    0 +8.7775633756e+02 +8.4447355568e+02 -5.2383028846e+02 1.3258921319e+03 0.0000000000e+00 0.0000e+00 -1.0000e+00
       22  1    1    2    0    0 -4.0760397399e+01 -1.4928681493e+01 +1.0648691698e+01 4.4695303580e+01 0.0000000000e+00 0.0000e+00 -1.0000e+00
</event>
<event>
 6      1 +1.4834189e-01 1.00001200e+04 7.81653100e-03 6.93871800e-02
  1000022 -1    0    0    0    0 +0.0000000000e+00 +0.0000000000e+00 +4.4721471353e+01 1.0000100000e+04 1.0000000000e+04 0.0000e+00 1.0000e+00
  1000022 -1    0    0    0    0 -0.0000000000e+00 -0.0000000000e+00 -4.4721471353e+01 1.0000100000e+04 1.0000000000e+04 0.0000e+00 1.0000e+00
      -24  1    1    2    0    0 -1.6047771745e+03 +9.4112926105e+03 +2.9353701092e+03 9.9885188456e+03 7.9829010000e+01 0.0000e+00 -1.0000e+00
       24  1    1    2    0    0 +1.5949822786e+03 -9.3603949537e+03 -2.9164847528e+03 9.9334393914e+03 7.9829010000e+01 0.0000e+00 -1.0000e+00
       22  1    1    2    0    0 -1.1285453817e+00 +1.0989938086e+01 +3.4065242797e+00 1.1561001751e+01 0.0000000000e+00 0.0000e+00 -1.0000e+00
       22  1    1    2    0    0 +1.0923441326e+01 -6.1887594953e+01 -2.2291880648e+01 6.6680761261e+01 0.0000000000e+00 0.0000e+00 1.0000e+00
</event>
<event>
 6      1 +1.4834189e-01 1.03339100e+04 7.81653100e-03 6.91894900e-02
  1000022 -1    0    0    0    0 +0.0000000000e+00 +0.0000000000e+00 +4.4721471353e+01 1.0000100000e+04 1.0000000000e+04 0.0000e+00 -1.0000e+00
  1000022 -1    0    0    0    0 -0.0000000000e+00 -0.0000000000e+00 -4.4721471353e+01 1.0000100000e+04 1.0000000000e+04 0.0000e+00 -1.0000e+00
      -24  1    1    2    0    0 +2.3172166197e+03 +4.7870364045e+03 +3.6684927607e+03 6.4613792805e+03 7.9829010000e+01 0.0000e+00 1.0000e+00
       24  1    1    2    0    0 -1.9029900038e+03 -7.0500084204e+03 -3.1592856021e+03 7.9568491168e+03 7.9829010000e+01 0.0000e+00 1.0000e+00
       22  1    1    2    0    0 +5.3293239947e+02 -1.4893818169e+03 -6.4799427702e+02 1.7094360830e+03 0.0000000000e+00 0.0000e+00 1.0000e+00
       22  1    1    2    0    0 -9.4715901537e+02 +3.7523538327e+03 +1.3878711837e+02 3.8725355196e+03 0.0000000000e+00 0.0000e+00 -1.0000e+00
</event>
<event>
 6      1 +1.4834189e-01 1.00500300e+04 7.81653100e-03 6.93571400e-02
  1000022 -1    0    0    0    0 +0.0000000000e+00 +0.0000000000e+00 +4.4721471353e+01 1.0000100000e+04 1.0000000000e+04 0.0000e+00 -1.0000e+00
  1000022 -1    0    0    0    0 -0.0000000000e+00 -0.0000000000e+00 -4.4721471353e+01 1.0000100000e+04 1.0000000000e+04 0.0000e+00 -1.0000e+00
      -24  1    1    2    0    0 -5.6323605022e+03 +2.8225613833e+03 -4.4712598220e+03 7.7258575353e+03 7.9829010000e+01 0.0000e+00 1.0000e+00
       24  1    1    2    0    0 +7.0179297718e+03 -4.2272171530e+03 +5.3117459086e+03 9.7643084962e+03 7.9829010000e+01 0.0000e+00 1.0000e+00
       22  1    1    2    0    0 +1.3378154847e+02 -8.1574960525e+01 +9.9968357996e+01 1.8586459990e+02 0.0000000000e+00 0.0000e+00 1.0000e+00
       22  1    1    2    0    0 -1.5193508181e+03 +1.4862307302e+03 -9.4045444464e+02 2.3241693686e+03 0.0000000000e+00 0.0000e+00 -1.0000e+00
</event>
<event>
 6      1 +1.4834189e-01 1.00019000e+04 7.81653100e-03 6.93861100e-02
  1000022 -1    0    0    0    0 +0.0000000000e+00 +0.0000000000e+00 +4.4721471353e+01 1.0000100000e+04 1.0000000000e+04 0.0000e+00 1.0000e+00
  1000022 -1    0    0    0    0 -0.0000000000e+00 -0.0000000000e+00 -4.4721471353e+01 1.0000100000e+04 1.0000000000e+04 0.0000e+00 1.0000e+00
      -24  1    1    2    0    0 -8.8376821218e+03 -2.3216161269e+03 +3.7968441169e+03 9.8952981080e+03 7.9829010000e+01 0.0000e+00 -1.0000e+00
       24  1    1    2    0    0 +8.5729059299e+03 +2.1939043442e+03 -3.6350454407e+03 9.5670194094e+03 7.9829010000e+01 0.0000e+00 -1.0000e+00
       22  1    1    2    0    0 +3.6065558002e+02 +1.4394604873e+02 -1.9576676773e+02 4.3487646487e+02 0.0000000000e+00 0.0000e+00 1.0000e+00
       22  1    1    2    0    0 -9.5879388047e+01 -1.6234265995e+01 +3.3968091517e+01 1.0300601772e+02 0.0000000000e+00 0.0000e+00 1.0000e+00
</event>
<event>
 6      1 +1.4834189e-01 1.00048600e+04 7.81653100e-03 6.93843200e-02
  1000022 -1    0    0    0    0 +0.0000000000e+00 +0.0000000000e+00 +4.4721471353e+01 1.0000100000e+04 1.0000000000e+04 0.0000e+00 -1.0000e+00
  1000022 -1    0    0    0    0 -0.0000000000e+00 -0.0000000000e+00 -4.4721471353e+01 1.0000100000e+04 1.0000000000e+04 0.0000e+00 -1.0000e+00
      -24  1    1    2    0    0 -3.6281878612e+02 -3.7574694355e+02 +1.0560147907e+03 1.1808315486e+03 7.9829010000e+01 0.0000e+00 1.0000e+00
       24  1    1    2    0    0 +2.1906629053e+03 +3.7978825990e+03 -8.8313925349e+03 9.8601614072e+03 7.9829010000e+01 0.0000e+00 -1.0000e+00
       22  1    1    2    0    0 -1.8670773780e+03 -3.4816758800e+03 +7.8902159718e+03 8.8240326921e+03 0.0000000000e+00 0.0000e+00 -1.0000e+00
       22  1    1    2    0    0 +3.9233258814e+01 +5.9540224621e+01 -1.1483822759e+02 1.3517435208e+02 0.0000000000e+00 0.0000e+00 1.0000e+00
</event>
<event>
 6      1 +1.4834189e-01 1.00005600e+04 7.81653100e-03 6.93869200e-02
  1000022 -1    0    0    0    0 +0.0000000000e+00 +0.0000000000e+00 +4.4721471353e+01 1.0000100000e+04 1.0000000000e+04 0.0000e+00 -1.0000e+00
  1000022 -1    0    0    0    0 -0.0000000000e+00 -0.0000000000e+00 -4.4721471353e+01 1.0000100000e+04 1.0000000000e+04 0.0000e+00 -1.0000e+00
      -24  1    1    2    0    0 +8.2597157474e+03 +2.7671578643e+03 -4.8432558248e+03 9.9671242858e+03 7.9829010000e+01 0.0000e+00 1.0000e+00
       24  1    1    2    0    0 -6.8630444511e+03 -2.2672983653e+03 +4.0361572088e+03 8.2788259252e+03 7.9829010000e+01 0.0000e+00 1.0000e+00
       22  1    1    2    0    0 +3.1888511690e+01 +5.6662568485e+00 -8.2961917568e+00 3.3433672281e+01 0.0000000000e+00 0.0000e+00 1.0000e+00
       22  1    1    2    0    0 -1.4285598080e+03 -5.0552575580e+02 +8.1539480776e+02 1.7208161167e+03 0.0000000000e+00 0.0000e+00 -1.0000e+00
</event>
<event>
 6      1 +1.4834189e-01 1.00698800e+04 7.81653100e-03 6.93452300e-02
  1000022 -1    0    0    0    0 +0.0000000000e+00 +0.0000000000e+00 +4.4721471353e+01 1.0000100000e+04 1.0000000000e+04 0.0000e+00 1.0000e+00
  1000022 -1    0    0    0    0 -0.0000000000e+00 -0.0000000000e+00 -4.4721471353e+01 1.0000100000e+04 1.0000000000e+04 0.0000e+00 1.0000e+00
      -24  1    1    2    0    0 +3.6075140100e+01 -7.1573996915e+03 -6.8829636994e+03 9.9303189132e+03 7.9829010000e+01 0.0000e+00 -1.0000e+00
       24  1    1    2    0    0 +2.7162183789e+02 +4.7245915741e+02 +6.0418846045e+02 8.1756494838e+02 7.9829010000e+01 0.0000e+00 -1.0000e+00
       22  1    1    2    0    0 -4.5558442120e+02 +6.6049879901e+03 +6.1828614236e+03 9.0587636517e+03 0.0000000000e+00 0.0000e+00 -1.0000e+00
       22  1    1    2    0    0 +1.4788744321e+02 +7.9952544053e+01 +9.5913815292e+01 1.9355248674e+02 0.0000000000e+00 0.0000e+00 -1.0000e+00
</event>
<event>
 6      1 +1.4834189e-01 1.00090600e+04 7.81653100e-03 6.93817900e-02
  1000022 -1    0    0    0    0 +0.0000000000e+00 +0.0000000000e+00 +4.4721471353e+01 1.0000100000e+04 1.0000000000e+04 0.0000e+00 -1.0000e+00
  1000022 -1    0    0    0    0 -0.0000000000e+00 -0.0000000000e+00 -4.4721471353e+01 1.0000100000e+04 1.0000000000e+04 0.0000e+00 -1.0000e+00
      -24  1    1    2    0    0 -2.2082618707e+03 +8.7266314103e+03 -2.2270910714e+03 9.2734472324e+03 7.9829010000e+01 0.0000e+00 1.0000e+00
       24  1    1    2    0    0 +2.2943858296e+03 -9.4417702026e+03 +2.2452056164e+03 9.9728908460e+03 7.9829010000e+01 0.0000e+00 1.0000e+00
       22  1    1    2    0    0 -9.0392442476e+01 +7.2947990092e+02 -2.8560258049e+01 7.3561362674e+02 0.0000000000e+00 0.0000e+00 -1.0000e+00
       22  1    1    2    0    0 +4.2684835697e+00 -1.4341108575e+01 +1.0445713014e+01 1.8248294921e+01 0.0000000000e+00 0.0000e+00 -1.0000e+00
</event>
<event>
 6      1 +1.4834189e-01 1.00009200e+04 7.81653100e-03 6.93867000e-02
  1000022 -1    0    0    0    0 +0.0000000000e+00 +0.0000000000e+00 +4.4721471353e+01 1.0000100000e+04 1.0000000000e+04 0.0000e+00 -1.0000e+00
  1000022 -1    0    0    0    0 -0.0000000000e+00 -0.0000000000e+00 -4.4721471353e+01 1.0000100000e+04 1.0000000000e+04 0.0000e+00 -1.0000e+00
      -24  1    1    2    0    0 +7.2709502977e+03 +3.5948177438e+03 -5.5506946586e+03 9.8288359793e+03 7.9829010000e+01 0.0000e+00 1.0000e+00
       24  1    1    2    0    0 -7.3513382886e+03 -3.6507013862e+03 +5.5888674953e+03 9.9303377483e+03 7.9829010000e+01 0.0000e+00 1.0000e+00
       22  1    1    2    0    0 +1.3386469916e+02 +6.4640809698e+01 -8.3392728414e+01 1.7044805400e+02 0.0000000000e+00 0.0000e+00 1.0000e+00
       22  1    1    2    0    0 -5.3476708276e+01 -8.7571673222e+00 +4.5219891710e+01 7.0578218409e+01 0.0000000000e+00 0.0000e+00 1.0000e+00
</event>
<event>
 6      1 +1.4834189e-01 1.00104300e+04 7.81653100e-03 6.93809600e-02
  1000022 -1    0    0    0    0 +0.0000000000e+00 +0.0000000000e+00 +4.4721471353e+01 1.0000100000e+04 1.0000000000e+04 0.0000e+00 1.0000e+00
  1000022 -1    0    0    0    0 -0.0000000000e+00 -0.0000000000e+00 -4.4721471353e+01 1.0000100000e+04 1.0000000000e+04 0.0000e+00 1.0000e+00
      -24  1    1    2    0    0 -6.2573208132e+02 -4.2672203283e+02 -1.0244254360e+03 1.2765000884e+03 7.9829010000e+01 0.0000e+00 1.0000e+00
       24  1    1    2    0    0 +5.9901991153e+03 +3.7972642667e+03 +7.0347338678e+03 9.9897725006e+03 7.9829010000e+01 0.0000e+00 1.0000e+00
       22  1    1    2    0    0 -5.3502733152e+03 -3.3584610585e+03 -5.9813969059e+03 8.6995283880e+03 0.0000000000e+00 0.0000e+00 1.0000e+00
       22  1    1    2    0    0 -1.4193718774e+01 -1.2081175457e+01 -2.8911525919e+01 3.4399023010e+01 0.0000000000e+00 0.0000e+00 1.0000e+00
</event>
<event>
 6      1 +1.4834189e-01 1.00090200e+04 7.81653100e-03 6.93818100e-02
  1000022 -1    0    0    0    0 +0.0000000000e+00 +0.0000000000e+00 +4.4721471353e+01 1.0000100000e+04 1.0000000000e+04 0.0000e+00 1.0000e+00
  1000022 -1    0    0    0    0 -0.0000000000e+00 -0.0000000000e+00 -4.4721471353e+01 1.0000100000e+04 1.0000000000e+04 0.0000e+00 1.0000e+00
      -24  1    1    2    0    0 -1.5886699498e+01 -5.0141179553e+02 +9.1092454674e+02 1.0429872370e+03 7.9829010000e+01 0.0000e+00 1.0000e+00
       24  1    1    2    0    0 -9.7409572638e+02 +3.6167674611e+03 -9.1973465760e+03 9.9311341780e+03 7.9829010000e+01 0.0000e+00 1.0000e+00
       22  1    1    2    0    0 +9.8184178803e+02 -3.1332575601e+03 +8.3431612528e+03 8.9660278789e+03 0.0000000000e+00 0.0000e+00 1.0000e+00
       22  1    1    2    0    0 +8.1406378452e+00 +1.7901894493e+01 -5.6739223561e+01 6.0050706085e+01 0.0000000000e+00 0.0000e+00 1.0000e+00
</event>
<event>
 6      1 +1.4834189e-01 1.00030500e+04 7.81653100e-03 6.93854100e-02
  1000022 -1    0    0    0    0 +0.0000000000e+00 +0.0000000000e+00 +4.4721471353e+01 1.0000100000e+04 1.0000000000e+04 0.0000e+00 1.0000e+00
  1000022 -1    0    0    0    0 -0.0000000000e+00 -0.0000000000e+00 -4.4721471353e+01 1.0000100000e+04 1.0000000000e+04 0.0000e+00 1.0000e+00
      -24  1    1    2    0    0 +8.2272411085e+03 +1.8559442574e+03 +5.2981994595e+03 9.9603873181e+03 7.9829010000e+01 0.0000e+00 1.0000e+00
       24  1    1    2    0    0 -7.7411857732e+03 -1.6764908749e+03 -4.9083701157e+03 9.3185325396e+03 7.9829010000e+01 0.0000e+00 1.0000e+00
       22  1    1    2    0    0 +3.1119168088e+01 +4.9020876372e+00 +1.8954224669e+01 3.6765414706e+01 0.0000000000e+00 0.0000e+00 1.0000e+00
       22  1    1    2    0    0 -5.1717450339e+02 -1.8435547014e+02 -4.0878356847e+02 6.8451472751e+02 0.0000000000e+00 0.0000e+00 1.0000e+00
</event>
<event>
 6      1 +1.4834189e-01 1.00178900e+04 7.81653100e-03 6.93764600e-02
  1000022 -1    0    0    0    0 +0.0000000000e+00 +0.0000000000e+00 +4.4721471353e+01 1.0000100000e+04 1.0000000000e+04 0.0000e+00 1.0000e+00
  1000022 -1    0    0    0    0 -0.0000000000e+00 -0.0000000000e+00 -4.4721471353e+01 1.0000100000e+04 1.0000000000e+04 0.0000e+00 1.0000e+00
      -24  1    1    2    0    0 +4.3761045552e+03 +6.1905664277e+03 -6.4935892835e+03 9.9823082615e+03 7.9829010000e+01 0.0000e+00 -1.0000e+00
       24  1    1    2    0    0 -4.0096584741e+03 -5.5749466767e+03 +5.8834437515e+03 9.0431562286e+03 7.9829010000e+01 0.0000e+00 -1.0000e+00
       22  1    1    2    0    0 -3.7543985557e+02 -4.5993795626e+02 +5.4432030247e+02 8.0547042183e+02 0.0000000000e+00 0.0000e+00 -1.0000e+00
       22  1    1    2    0    0 +8.9937745616e+00 -1.5568179477e+02 +6.5825229573e+01 1.6926508811e+02 0.0000000000e+00 0.0000e+00 -1.0000e+00
</event>
<event>
 6      1 +1.4834189e-01 1.05591400e+04 7.81653100e-03 6.90603000e-02
  1000022 -1    0    0    0    0 +0.0000000000e+00 +0.0000000000e+00 +4.4721471353e+01 1.0000100000e+04 1.0000000000e+04 0.0000e+00 -1.0000e+00
  1000022 -1    0    0    0    0 -0.0000000000e+00 -0.0000000000e+00 -4.4721471353e+01 1.0000100000e+04 1.0000000000e+04 0.0000e+00 -1.0000e+00
      -24  1    1    2    0    0 +4.3983447189e+03 +2.9329667735e+03 -7.8217354777e+03 9.4410618531e+03 7.9829010000e+01 0.0000e+00 1.0000e+00
       24  1    1    2    0    0 -3.1420539681e+03 -2.1514806776e+03 +8.1753436177e+03 9.0190902081e+03 7.9829010000e+01 0.0000e+00 1.0000e+00
       22  1    1    2    0    0 -1.1289674368e+03 -7.6168943366e+02 -3.6708287409e+02 1.4104921493e+03 0.0000000000e+00 0.0000e+00 -1.0000e+00
       22  1    1    2    0    0 -1.2732331399e+02 -1.9796662244e+01 +1.3474734066e+01 1.2955578945e+02 0.0000000000e+00 0.0000e+00 1.0000e+00
</event>
<event>
 6      1 +1.4834189e-01 1.00145200e+04 7.81653100e-03 6.93784900e-02
  1000022 -1    0    0    0    0 +0.0000000000e+00 +0.0000000000e+00 +4.4721471353e+01 1.0000100000e+04 1.0000000000e+04 0.0000e+00 1.0000e+00
  1000022 -1    0    0    0    0 -0.0000000000e+00 -0.0000000000e+00 -4.4721471353e+01 1.0000100000e+04 1.0000000000e+04 0.0000e+00 1.0000e+00
      -24  1    1    2    0    0 +7.5626609203e+03 +1.0561315872e+03 -2.4441272000e+03 8.0180661363e+03 7.9829010000e+01 0.0000e+00 1.0000e+00
       24  1    1    2    0    0 -9.4327978640e+03 -1.3238790948e+03 +2.6623377741e+03 9.8906393370e+03 7.9829010000e+01 0.0000e+00 1.0000e+00
       22  1    1    2    0    0 +1.9628318513e+03 +2.7763245049e+02 -2.3672360012e+02 1.9964535349e+03 0.0000000000e+00 0.0000e+00 1.0000e+00
       22  1    1    2    0    0 -9.2694907590e+01 -9.8849428283e+00 +1.8513026063e+01 9.5040991798e+01 0.0000000000e+00 0.0000e+00 1.0000e+00
</event>
<event>
 6      1 +1.4834189e-01 8.28214800e+03 7.81653100e-03 7.05446100e-02
  1000022 -1    0    0    0    0 +0.0000000000e+00 +0.0000000000e+00 +4.4721471353e+01 1.0000100000e+04 1.0000000000e+04 0.0000e+00 -1.0000e+00
  1000022 -1    0    0    0    0 -0.0000000000e+00 -0.0000000000e+00 -4.4721471353e+01 1.0000100000e+04 1.0000000000e+04 0.0000e+00 -1.0000e+00
      -24  1    1    2    0    0 -1.7952124194e+03 +2.4404346084e+03 -4.1745615136e+01 3.0309444198e+03 7.9829010000e+01 0.0000e+00 1.0000e+00
       24  1    1    2    0    0 +8.5316602864e+03 +1.4137699244e+03 +1.9462081035e+03 8.8646529145e+03 7.9829010000e+01 0.0000e+00 -1.0000e+00
       22  1    1    2    0    0 -6.6854238001e+03 -3.8655557755e+03 -2.0160791999e+03 7.9813525283e+03 0.0000000000e+00 0.0000e+00 -1.0000e+00
       22  1    1    2    0    0 -5.1024066891e+01 +1.1351242708e+01 +1.1161671146e+02 1.2325013749e+02 0.0000000000e+00 0.0000e+00 -1.0000e+00
</event>
<event>
 6      1 +1.4834189e-01 1.00128000e+04 7.81653100e-03 6.93795300e-02
  1000022 -1    0    0    0    0 +0.0000000000e+00 +0.0000000000e+00 +4.4721471353e+01 1.0000100000e+04 1.0000000000e+04 0.0000e+00 1.0000e+00
  1000022 -1    0    0    0    0 -0.0000000000e+00 -0.0000000000e+00 -4.4721471353e+01 1.0000100000e+04 1.0000000000e+04 0.0000e+00 1.0000e+00
      -24  1    1    2    0    0 +5.2380486765e+03 -6.6317100925e+03 -4.9698134949e+03 9.8041905088e+03 7.9829010000e+01 0.0000e+00 1.0000e+00
       24  1    1    2    0    0 -7.1145916952e+01 -5.9587895248e-01 +4.3793811051e+01 1.1555373337e+02 7.9829010000e+01 0.0000e+00 0.0000e+00
       22  1    1    2    0    0 +1.3714696565e+02 +3.5191822819e+01 -1.5320056776e+02 2.0861008735e+02 0.0000000000e+00 0.0000e+00 -1.0000e+00
       22  1    1    2    0    0 -5.3040497252e+03 +6.5971141486e+03 +5.0792202516e+03 9.8718456705e+03 0.0000000000e+00 0.0000e+00 1.0000e+00
</event>
<event>
 6      1 +1.4834189e-01 8.17107900e+03 7.81653100e-03 7.06290200e-02
  1000022 -1    0    0    0    0 +0.0000000000e+00 +0.0000000000e+00 +4.4721471353e+01 1.0000100000e+04 1.0000000000e+04 0.0000e+00 -1.0000e+00
  1000022 -1    0    0    0    0 -0.0000000000e+00 -0.0000000000e+00 -4.4721471353e+01 1.0000100000e+04 1.0000000000e+04 0.0000e+00 -1.0000e+00
      -24  1    1    2    0    0 -2.0604209381e+03 -8.5155177972e+03 +2.7631080958e+03 9.1869753900e+03 7.9829010000e+01 0.0000e+00 1.0000e+00
       24  1    1    2    0    0 +2.3938522463e+03 +1.2023219040e+03 -2.0257270893e+03 3.3594716026e+03 7.9829010000e+01 0.0000e+00 1.0000e+00
       22  1    1    2    0    0 -3.8179278278e+02 +7.3417986934e+03 -7.6450342883e+02 7.3913624777e+03 0.0000000000e+00 0.0000e+00 1.0000e+00
       22  1    1    2    0    0 +4.8361474589e+01 -2.8602800173e+01 +2.7122422356e+01 6.2390529703e+01 0.0000000000e+00 0.0000e+00 -1.0000e+00
</event>
<event>
 6      1 +1.4834189e-01 1.00038600e+04 7.81653100e-03 6.93849300e-02
  1000022 -1    0    0    0    0 +0.0000000000e+00 +0.0000000000e+00 +4.4721471353e+01 1.0000100000e+04 1.0000000000e+04 0.0000e+00 1.0000e+00
  1000022 -1    0    0    0    0 -0.0000000000e+00 -0.0000000000e+00 -4.4721471353e+01 1.0000100000e+04 1.0000000000e+04 0.0000e+00 1.0000e+00
      -24  1    1    2    0    0 +4.2848104194e+03 -1.0717470661e+03 +8.9013274704e+03 9.9372151788e+03 7.9829010000e+01 0.0000e+00 1.0000e+00
       24  1    1    2    0    0 -4.6828061862e+02 +2.2105864298e+02 -9.9750704611e+02 1.1267416027e+03 7.9829010000e+01 0.0000e+00 1.0000e+00
       22  1    1    2    0    0 +2.7566743178e+01 -9.4697614894e+00 +5.1443911838e+01 5.9127639707e+01 0.0000000000e+00 0.0000e+00 -1.0000e+00
       22  1    1    2    0    0 -3.8440965440e+03 +8.6015818465e+02 -7.9552643361e+03 8.8771155788e+03 0.0000000000e+00 0.0000e+00 1.0000e+00
</event>
<event>
 6      1 +1.4834189e-01 1.00354900e+04 7.81653100e-03 6.93658700e-02
  1000022 -1    0    0    0    0 +0.0000000000e+00 +0.0000000000e+00 +4.4721471353e+01 1.0000100000e+04 1.0000000000e+04 0.0000e+00 1.0000e+00
  1000022 -1    0    0    0    0 -0.0000000000e+00 -0.0000000000e+00 -4.4721471353e+01 1.0000100000e+04 1.0000000000e+04 0.0000e+00 1.0000e+00
      -24  1    1    2    0    0 -1.4441947242e+03 -1.0206466884e+03 +9.3827959025e+03 9.5483322985e+03 7.9829010000e+01 0.0000e+00 -1.0000e+00
       24  1    1    2    0    0 +1.5623868845e+03 +8.6791146980e+02 -9.8027934753e+03 9.9647105169e+03 7.9829010000e+01 0.0000e+00 -1.0000e+00
       22  1    1    2    0    0 -2.3711293362e+01 -1.6324163935e+01 +1.6210711631e+02 1.6464331422e+02 0.0000000000e+00 0.0000e+00 -1.0000e+00
       22  1    1    2    0    0 -9.4480866961e+01 +1.6905938252e+02 +2.5789045647e+02 3.2251387037e+02 0.0000000000e+00 0.0000e+00 -1.0000e+00
</event>
<event>
 6      1 +1.4834189e-01 1.00088200e+04 7.81653100e-03 6.93819300e-02
  1000022 -1    0    0    0    0 +0.0000000000e+00 +0.0000000000e+00 +4.4721471353e+01 1.0000100000e+04 1.0000000000e+04 0.0000e+00 1.0000e+00
  1000022 -1    0    0    0    0 -0.0000000000e+00 -0.0000000000e+00 -4.4721471353e+01 1.0000100000e+04 1.0000000000e+04 0.0000e+00 1.0000e+00
      -24  1    1    2    0    0 -2.1746466024e+03 +7.4919386660e+03 +8.4175982726e+02 7.8468570204e+03 7.9829010000e+01 0.0000e+00 -1.0000e+00
       24  1    1    2    0    0 +4.8240079543e+02 -1.8881612259e+03 -3.3368969129e+01 1.9507305046e+03 7.9829010000e+01 0.0000e+00 0.0000e+00
       22  1    1    2    0    0 +2.2309939054e+03 -7.6941395671e+03 -6.8916487998e+02 8.0406508266e+03 0.0000000000e+00 0.0000e+00 -1.0000e+00
       22  1    1    2    0    0 -5.3874809844e+02 +2.0903621270e+03 -1.1922597815e+02 2.1619616484e+03 0.0000000000e+00 0.0000e+00 -1.0000e+00
</event>
<event>
 6      1 +1.4834189e-01 1.00141800e+04 7.81653100e-03 6.93787000e-02
  1000022 -1    0    0    0    0 +0.0000000000e+00 +0.0000000000e+00 +4.4721471353e+01 1.0000100000e+04 1.0000000000e+04 0.0000e+00 1.0000e+00
  1000022 -1    0    0    0    0 -0.0000000000e+00 -0.0000000000e+00 -4.4721471353e+01 1.0000100000e+04 1.0000000000e+04 0.0000e+00 1.0000e+00
      -24  1    1    2    0    0 +7.4598821672e+03 -3.6240331920e+03 -2.4696989530e+03 8.6538571814e+03 7.9829010000e+01 0.0000e+00 1.0000e+00
       24  1    1    2    0    0 -3.8459295603e+03 +1.0871207671e+03 +4.5103920109e+02 4.0227869415e+03 7.9829010000e+01 0.0000e+00 1.0000e+00
       22  1    1    2    0    0 -4.8509234851e+03 +2.9974869115e+03 +1.8386006693e+03 5.9913970712e+03 0.0000000000e+00 0.0000e+00 1.0000e+00
       22  1    1    2    0    0 +1.2369708782e+03 -4.6057448651e+02 +1.8005908263e+02 1.3321588060e+03 0.0000000000e+00 0.0000e+00 1.0000e+00
</event>
<event>
 6      1 +1.4834189e-01 1.08208400e+04 7.81653100e-03 6.89141900e-02
  1000022 -1    0    0    0    0 +0.0000000000e+00 +0.0000000000e+00 +4.4721471353e+01 1.0000100000e+04 1.0000000000e+04 0.0000e+00 1.0000e+00
  1000022 -1    0    0    0    0 -0.0000000000e+00 -0.0000000000e+00 -4.4721471353e+01 1.0000100000e+04 1.0000000000e+04 0.0000e+00 1.0000e+00
      -24  1    1    2    0    0 +5.4933129263e+03 -1.6657551827e+01 -5.8655730494e+03 8.0366712169e+03 7.9829010000e+01 0.0000e+00 1.0000e+00
       24  1    1    2    0    0 -5.6726921909e+03 +2.3611126965e+03 +6.8190935441e+03 9.1793626844e+03 7.9829010000e+01 0.0000e+00 1.0000e+00
       22  1    1    2    0    0 -4.7386460050e+01 -2.3431895021e+03 -7.0427887189e+02 2.4472006965e+03 0.0000000000e+00 0.0000e+00 1.0000e+00
       22  1    1    2    0    0 +2.2676572462e+02 -1.2656425942e+00 -2.4924162281e+02 3.3696540216e+02 0.0000000000e+00 0.0000e+00 -1.0000e+00
</event>
<event>
 6      1 +1.4834189e-01 1.01465300e+04 7.81653100e-03 6.92995300e-02
  1000022 -1    0    0    0    0 +0.0000000000e+00 +0.0000000000e+00 +4.4721471353e+01 1.0000100000e+04 1.0000000000e+04 0.0000e+00 1.0000e+00
  1000022 -1    0    0    0    0 -0.0000000000e+00 -0.0000000000e+00 -4.4721471353e+01 1.0000100000e+04 1.0000000000e+04 0.0000e+00 1.0000e+00
      -24  1    1    2    0    0 +5.8988621114e+03 -2.7710090862e+03 -1.9653011621e+03 6.8076315187e+03 7.9829010000e+01 0.0000e+00 1.0000e+00
       24  1    1    2    0    0 -8.5870849864e+03 +4.5134101712e+03 +1.2576719782e+03 9.7824849304e+03 7.9829010000e+01 0.0000e+00 1.0000e+00
       22  1    1    2    0    0 -4.7994243942e+01 +1.4437544465e+01 -5.0557509618e+01 7.1189549237e+01 0.0000000000e+00 0.0000e+00 1.0000e+00
       22  1    1    2    0    0 +2.7362171189e+03 -1.7568386296e+03 +7.5818669354e+02 3.3388940017e+03 0.0000000000e+00 0.0000e+00 1.0000e+00
</event>
<event>
 6      1 +1.4834189e-01 9.52159400e+03 7.81653100e-03 6.96845500e-02
  1000022 -1    0    0    0    0 +0.0000000000e+00 +0.0000000000e+00 +4.4721471353e+01 1.0000100000e+04 1.0000000000e+04 0.0000e+00 -1.0000e+00
  1000022 -1    0    0    0    0 -0.0000000000e+00 -0.0000000000e+00 -4.4721471353e+01 1.0000100000e+04 1.0000000000e+04 0.0000e+00 -1.0000e+00
      -24  1    1    2    0    0 +4.7993981239e+03 -8.0925430241e+03 +1.3166131968e+02 9.4099512391e+03 7.9829010000e+01 0.0000e+00 1.0000e+00
       24  1    1    2    0    0 +2.1047261299e+02 +4.1232105578e+02 +8.4606863119e+02 9.6773559064e+02 7.9829010000e+01 0.0000e+00 1.0000e+00
       22  1    1    2    0    0 +3.6820594718e+00 -2.0892216792e+02 +6.0684731184e+01 2.1758829566e+02 0.0000000000e+00 0.0000e+00 1.0000e+00
       22  1    1    2    0    0 -5.0135527964e+03 +7.8891441362e+03 -1.0384146821e+03 9.4049248746e+03 0.0000000000e+00 0.0000e+00 1.0000e+00
</event>
<event>
 6      1 +1.4834189e-01 1.00008200e+04 7.81653100e-03 6.93867600e-02
  1000022 -1    0    0    0    0 +0.0000000000e+00 +0.0000000000e+00 +4.4721471353e+01 1.0000100000e+04 1.0000000000e+04 0.0000e+00 -1.0000e+00
  1000022 -1    0    0    0    0 -0.0000000000e+00 -0.0000000000e+00 -4.4721471353e+01 1.0000100000e+04 1.0000000000e+04 0.0000e+00 -1.0000e+00
      -24  1    1    2    0    0 -6.7770722533e+03 -6.4630664551e+03 -3.2722712524e+03 9.9203864920e+03 7.9829010000e+01 0.0000e+00 1.0000e+00
       24  1    1    2    0    0 +6.8012177259e+03 +6.5037551409e+03 +3.2838579217e+03 9.9672207264e+03 7.9829010000e+01 0.0000e+00 1.0000e+00
       22  1    1    2    0    0 -4.4608911600e+01 -6.3200251195e+01 -2.2020476581e+01 8.0430890422e+01 0.0000000000e+00 0.0000e+00 -1.0000e+00
       22  1    1    2    0    0 +2.0463439031e+01 +2.2511565442e+01 +1.0433807216e+01 3.2161891248e+01 0.0000000000e+00 0.0000e+00 1.0000e+00
</event>
<event>
 6      1 +1.4834189e-01 1.00152200e+04 7.81653100e-03 6.93780700e-02
  1000022 -1    0    0    0    0 +0.0000000000e+00 +0.0000000000e+00 +4.4721471353e+01 1.0000100000e+04 1.0000000000e+04 0.0000e+00 1.0000e+00
  1000022 -1    0    0    0    0 -0.0000000000e+00 -0.0000000000e+00 -4.4721471353e+01 1.0000100000e+04 1.0000000000e+04 0.0000e+00 1.0000e+00
      -24  1    1    2    0    0 +4.8200798161e+01 -1.5378587101e+02 -2.9583780817e+01 1.8226706227e+02 7.9829010000e+01 0.0000e+00 1.0000e+00
       24  1    1    2    0    0 -5.1738517951e+03 +8.3632303062e+03 -1.1048913831e+03 9.8964398240e+03 7.9829010000e+01 0.0000e+00 -1.0000e+00
       22  1    1    2    0    0 +5.1713426241e+03 -8.2841995747e+03 +1.1472589757e+03 9.8329522671e+03 0.0000000000e+00 0.0000e+00 -1.0000e+00
       22  1    1    2    0    0 -4.5691627185e+01 +7.4755139522e+01 -1.2783811762e+01 8.8540846636e+01 0.0000000000e+00 0.0000e+00 -1.0000e+00
</event>
<event>
 6      1 +1.4834189e-01 1.00073900e+04 7.81653100e-03 6.93827900e-02
  1000022 -1    0    0    0    0 +0.0000000000e+00 +0.0000000000e+00 +4.4721471353e+01 1.0000100000e+04 1.0000000000e+04 0.0000e+00 -1.0000e+00
  1000022 -1    0    0    0    0 -0.0000000000e+00 -0.0000000000e+00 -4.4721471353e+01 1.0000100000e+04 1.0000000000e+04 0.0000e+00 -1.0000e+00
      -24  1    1    2    0    0 +9.5523153478e+03 -1.9233131688e+03 +1.7038954504e+03 9.8921936104e+03 7.9829010000e+01 0.0000e+00 -1.0000e+00
       24  1    1    2    0    0 -8.8891369992e+03 +1.8161730377e+03 -1.5512446095e+03 9.2047799324e+03 7.9829010000e+01 0.0000e+00 -1.0000e+00
       22  1    1    2    0    0 -7.6410972273e+02 +1.5142192073e+02 -1.1914274951e+02 7.8802744952e+02 0.0000000000e+00 0.0000e+00 1.0000e+00
       22  1    1    2    0    0 +1.0093137420e+02 -4.4281789612e+01 -3.3508091422e+01 1.1519900772e+02 0.0000000000e+00 0.0000e+00 -1.0000e+00
</event>
<event>
 6      1 +1.4834189e-01 1.00148100e+04 7.81653100e-03 6.93783200e-02
  1000022 -1    0    0    0    0 +0.0000000000e+00 +0.0000000000e+00 +4.4721471353e+01 1.0000100000e+04 1.0000000000e+04 0.0000e+00 -1.0000e+00
  1000022 -1    0    0    0    0 -0.0000000000e+00 -0.0000000000e+00 -4.4721471353e+01 1.0000100000e+04 1.0000000000e+04 0.0000e+00 -1.0000e+00
      -24  1    1    2    0    0 +7.0755334879e+03 -9.6700649420e+02 -6.9787792839e+03 9.9853897601e+03 7.9829010000e+01 0.0000e+00 -1.0000e+00
       24  1    1    2    0    0 -6.8076006796e+03 +1.0244307973e+03 +6.5574004662e+03 9.5078261982e+03 7.9829010000e+01 0.0000e+00 -1.0000e+00
       22  1    1    2    0    0 -1.7666051447e+02 -6.6572887618e+01 +3.0648655483e+02 3.5996513030e+02 0.0000000000e+00 0.0000e+00 1.0000e+00
       22  1    1    2    0    0 -9.1272293850e+01 +9.1485844751e+00 +1.1489226290e+02 1.4701891136e+02 0.0000000000e+00 0.0000e+00 -1.0000e+00
</event>
<event>
 6      1 +1.4834189e-01 1.00602200e+04 7.81653100e-03 6.93510200e-02
  1000022 -1    0    0    0    0 +0.0000000000e+00 +0.0000000000e+00 +4.4721471353e+01 1.0000100000e+04 1.0000000000e+04 0.0000e+00 1.0000e+00
  1000022 -1    0    0    0    0 -0.0000000000e+00 -0.0000000000e+00 -4.4721471353e+01 1.0000100000e+04 1.0000000000e+04 0.0000e+00 1.0000e+00
      -24  1    1    2    0    0 +6.0133472168e+02 -1.3814944371e+03 -9.4731180332e+02 1.7815450179e+03 7.9829010000e+01 0.0000e+00 -1.0000e+00
       24  1    1    2    0    0 -4.5356629749e+03 +5.7607714436e+03 +6.7110399499e+03 9.9399776724e+03 7.9829010000e+01 0.0000e+00 -1.0000e+00
       22  1    1    2    0    0 +3.8485960672e+03 -4.4081620201e+03 -5.6880716840e+03 8.1607440572e+03 0.0000000000e+00 0.0000e+00 -1.0000e+00
       22  1    1    2    0    0 +8.5732185990e+01 +2.8885013642e+01 -7.5656462512e+01 1.1793325251e+02 0.0000000000e+00 0.0000e+00 -1.0000e+00
</event>
<event>
 6      1 +1.4834189e-01 9.58894100e+03 7.81653100e-03 6.96416500e-02
  1000022 -1    0    0    0    0 +0.0000000000e+00 +0.0000000000e+00 +4.4721471353e+01 1.0000100000e+04 1.0000000000e+04 0.0000e+00 1.0000e+00
  1000022 -1    0    0    0    0 -0.0000000000e+00 -0.0000000000e+00 -4.4721471353e+01 1.0000100000e+04 1.0000000000e+04 0.0000e+00 1.0000e+00
      -24  1    1    2    0    0 -5.5827426927e+03 +6.6032109243e+03 +4.6193769829e+03 9.8037965536e+03 7.9829010000e+01 0.0000e+00 1.0000e+00
       24  1    1    2    0    0 -3.7683092045e+01 -2.1073570307e+02 -1.0955644662e+02 2.5338673566e+02 7.9829010000e+01 0.0000e+00 -1.0000e+00
       22  1    1    2    0    0 -2.4587876235e+02 -4.3748087590e+02 -2.3269033094e+02 5.5316423661e+02 0.0000000000e+00 0.0000e+00 -1.0000e+00
       22  1    1    2    0    0 +5.8663045471e+03 -5.9549943453e+03 -4.2771302053e+03 9.3898524741e+03 0.0000000000e+00 0.0000e+00 1.0000e+00
</event>
<event>
 6      1 +1.4834189e-01 1.07506200e+04 7.81653100e-03 6.89529900e-02
  1000022 -1    0    0    0    0 +0.0000000000e+00 +0.0000000000e+00 +4.4721471353e+01 1.0000100000e+04 1.0000000000e+04 0.0000e+00 -1.0000e+00
  1000022 -1    0    0    0    0 -0.0000000000e+00 -0.0000000000e+00 -4.4721471353e+01 1.0000100000e+04 1.0000000000e+04 0.0000e+00 -1.0000e+00
      -24  1    1    2    0    0 -4.6301030599e+01 +4.4294049696e+02 -2.2132453998e+02 5.0368372231e+02 7.9829010000e+01 0.0000e+00 1.0000e+00
       24  1    1    2    0    0 -1.3282174595e+02 -8.2833942667e+03 +2.8953451201e+03 8.7761983927e+03 7.9829010000e+01 0.0000e+00 1.0000e+00
       22  1    1    2    0    0 +1.9540900140e+03 -2.5235162100e+02 +1.2718649016e+02 1.9744177691e+03 0.0000000000e+00 0.0000e+00 1.0000e+00
       22  1    1    2    0    0 -1.7749672375e+03 +8.0928053907e+03 -2.8012070702e+03 8.7459001159e+03 0.0000000000e+00 0.0000e+00 1.0000e+00
</event>
<event>
 6      1 +1.4834189e-01 1.00013900e+04 7.81653100e-03 6.93864100e-02
  1000022 -1    0    0    0    0 +0.0000000000e+00 +0.0000000000e+00 +4.4721471353e+01 1.0000100000e+04 1.0000000000e+04 0.0000e+00 -1.0000e+00
  1000022 -1    0    0    0    0 -0.0000000000e+00 -0.0000000000e+00 -4.4721471353e+01 1.0000100000e+04 1.0000000000e+04 0.0000e+00 -1.0000e+00
      -24  1    1    2    0    0 -3.7697614198e+02 +1.0132403075e+03 +7.7898767408e+02 1.3349012696e+03 7.9829010000e+01 0.0000e+00 -1.0000e+00
       24  1    1    2    0    0 +2.5775678318e+03 -6.9218935289e+03 -5.8154419073e+03 9.4011809472e+03 7.9829010000e+01 0.0000e+00 -1.0000e+00
       22  1    1    2    0    0 +1.5079386604e+02 -4.5959071350e+02 -3.5098933296e+02 5.9762523861e+02 0.0000000000e+00 0.0000e+00 -1.0000e+00
       22  1    1    2    0    0 -2.3513855558e+03 +6.3682439349e+03 +5.3874435662e+03 8.6664925446e+03 0.0000000000e+00 0.0000e+00 -1.0000e+00
</event>
<event>
 6      1 +1.4834189e-01 1.00066500e+04 7.81653100e-03 6.93832400e-02
  1000022 -1    0    0    0    0 +0.0000000000e+00 +0.0000000000e+00 +4.4721471353e+01 1.0000100000e+04 1.0000000000e+04 0.0000e+00 1.0000e+00
  1000022 -1    0    0    0    0 -0.0000000000e+00 -0.0000000000e+00 -4.4721471353e+01 1.0000100000e+04 1.0000000000e+04 0.0000e+00 1.0000e+00
      -24  1    1    2    0    0 -6.6354663325e+02 -2.2717700283e+03 -9.5878943280e+03 9.8759973426e+03 7.9829010000e+01 0.0000e+00 1.0000e+00
       24  1    1    2    0    0 +6.0612502679e+02 +2.2597390154e+03 +9.5574189431e+03 9.8399409292e+03 7.9829010000e+01 0.0000e+00 1.0000e+00
       22  1    1    2    0    0 +8.5003891363e+00 +3.2851355795e+01 +1.4981739786e+02 1.5361224200e+02 0.0000000000e+00 0.0000e+00 1.0000e+00
       22  1    1    2    0    0 +4.8921217326e+01 -2.0820342851e+01 -1.1934201296e+02 1.3064948618e+02 0.0000000000e+00 0.0000e+00 1.0000e+00
</event>
<event>
 6      1 +1.4834189e-01 1.00724800e+04 7.81653100e-03 6.93436800e-02
  1000022 -1    0    0    0    0 +0.0000000000e+00 +0.0000000000e+00 +4.4721471353e+01 1.0000100000e+04 1.0000000000e+04 0.0000e+00 -1.0000e+00
  1000022 -1    0    0    0    0 -0.0000000000e+00 -0.0000000000e+00 -4.4721471353e+01 1.0000100000e+04 1.0000000000e+04 0.0000e+00 -1.0000e+00
      -24  1    1    2    0    0 -2.9858633808e+03 -7.9614381473e+03 -4.4704062788e+03 9.6068091721e+03 7.9829010000e+01 0.0000e+00 1.0000e+00
       24  1    1    2    0    0 +3.0905481319e+03 +8.0924346377e+03 +4.8491576399e+03 9.9277232339e+03 7.9829010000e+01 0.0000e+00 1.0000e+00
       22  1    1    2    0    0 -1.7038310728e+01 -1.6180654116e+02 -3.0996152158e+02 3.5006828713e+02 0.0000000000e+00 0.0000e+00 -1.0000e+00
       22  1    1    2    0    0 -8.7646440370e+01 +3.0810050719e+01 -6.8789839462e+01 1.1559930687e+02 0.0000000000e+00 0.0000e+00 1.0000e+00
</event>
<event>
 6      1 +1.4834189e-01 9.90397400e+03 7.81653100e-03 6.94455700e-02
  1000022 -1    0    0    0    0 +0.0000000000e+00 +0.0000000000e+00 +4.4721471353e+01 1.0000100000e+04 1.0000000000e+04 0.0000e+00 -1.0000e+00
  1000022 -1    0    0    0    0 -0.0000000000e+00 -0.0000000000e+00 -4.4721471353e+01 1.0000100000e+04 1.0000000000e+04 0.0000e+00 -1.0000e+00
      -24  1    1    2    0    0 -5.9238255876e+01 +1.5918414447e+02 -5.3160624726e+01 1.9505764704e+02 7.9829010000e+01 0.0000e+00 1.0000e+00
       24  1    1    2    0    0 +3.2797099152e+03 -5.4775303757e+03 -7.5412101121e+03 9.8810960308e+03 7.9829010000e+01 0.0000e+00 1.0000e+00
       22  1    1    2    0    0 -3.2550385603e+03 +5.3491352990e+03 +7.6264788040e+03 9.8677101409e+03 0.0000000000e+00 0.0000e+00 1.0000e+00
       22  1    1    2    0    0 +3.4566901009e+01 -3.0789067812e+01 -3.2108067148e+01 5.6336181252e+01 0.0000000000e+00 0.0000e+00 -1.0000e+00
</event>
<event>
 6      1 +1.4834189e-01 1.00032900e+04 7.81653100e-03 6.93852700e-02
  1000022 -1    0    0    0    0 +0.0000000000e+00 +0.0000000000e+00 +4.4721471353e+01 1.0000100000e+04 1.0000000000e+04 0.0000e+00 -1.0000e+00
  1000022 -1    0    0    0    0 -0.0000000000e+00 -0.0000000000e+00 -4.4721471353e+01 1.0000100000e+04 1.0000000000e+04 0.0000e+00 -1.0000e+00
      -24  1    1    2    0    0 +2.7780581606e+03 -1.9880768581e+02 +1.0283218659e+03 2.9700084462e+03 7.9829010000e+01 0.0000e+00 1.0000e+00
       24  1    1    2    0    0 -1.3301932568e+03 +1.3259446281e+02 -3.8957470532e+02 1.3946815098e+03 7.9829010000e+01 0.0000e+00 1.0000e+00
       22  1    1    2    0    0 +6.5742570612e+03 -3.4201288665e+02 +2.4575460239e+03 7.0269026734e+03 0.0000000000e+00 0.0000e+00 1.0000e+00
       22  1    1    2    0    0 -8.0221219650e+03 +4.0822610965e+02 -3.0962931845e+03 8.6086073707e+03 0.0000000000e+00 0.0000e+00 1.0000e+00
</event>
<event>
 6      1 +1.4834189e-01 1.00129700e+04 7.81653100e-03 6.93794300e-02
  1000022 -1    0    0    0    0 +0.0000000000e+00 +0.0000000000e+00 +4.4721471353e+01 1.0000100000e+04 1.0000000000e+04 0.0000e+00 -1.0000e+00
  1000022 -1    0    0    0    0 -0.0000000000e+00 -0.0000000000e+00 -4.4721471353e+01 1.0000100000e+04 1.0000000000e+04 0.0000e+00 -1.0000e+00
      -24  1    1    2    0    0 -8.2145429990e+03 -5.6606875649e+03 -4.6504636841e+02 9.9872289042e+03 7.9829010000e+01 0.0000e+00 1.0000e+00
       24  1    1    2    0    0 +4.9848645123e+03 +3.4182875233e+03 +1.7803250850e+02 6.0474483911e+03 7.9829010000e+01 0.0000e+00 1.0000e+00
       22  1    1    2    0    0 +1.1475452396e+01 -1.6605288711e+01 +1.3137180434e+01 2.4083337198e+01 0.0000000000e+00 0.0000e+00 1.0000e+00
       22  1    1    2    0    0 +3.2182030343e+03 +2.2590053303e+03 +2.7387667948e+02 3.9414393675e+03 0.0000000000e+00 0.0000e+00 1.0000e+00
</event>
<event>
 6      1 +1.4834189e-01 1.01662600e+04 7.81653100e-03 6.92878300e-02
  1000022 -1    0    0    0    0 +0.0000000000e+00 +0.0000000000e+00 +4.4721471353e+01 1.0000100000e+04 1.0000000000e+04 0.0000e+00 1.0000e+00
  1000022 -1    0    0    0    0 -0.0000000000e+00 -0.0000000000e+00 -4.4721471353e+01 1.0000100000e+04 1.0000000000e+04 0.0000e+00 1.0000e+00
      -24  1    1    2    0    0 -7.7027468660e+03 -5.8440032710e+03 +1.5654267182e+03 9.7949791727e+03 7.9829010000e+01 0.0000e+00 -1.0000e+00
       24  1    1    2    0    0 +7.7889757209e+03 +5.2452297447e+03 -1.7201245042e+03 9.5470298437e+03 7.9829010000e+01 0.0000e+00 -1.0000e+00
       22  1    1    2    0    0 -3.7972303234e+01 +3.2729810438e+00 -8.0810342741e+00 3.8960381579e+01 0.0000000000e+00 0.0000e+00 -1.0000e+00
       22  1    1    2    0    0 -4.8256551666e+01 +5.9550054525e+02 +1.6277882019e+02 6.1923060201e+02 0.0000000000e+00 0.0000e+00 -1.0000e+00
</event>
<event>
 6      1 +1.4834189e-01 1.00734500e+04 7.81653100e-03 6.93431000e-02
  1000022 -1    0    0    0    0 +0.0000000000e+00 +0.0000000000e+00 +4.4721471353e+01 1.0000100000e+04 1.0000000000e+04 0.0000e+00 -1.0000e+00
  1000022 -1    0    0    0    0 -0.0000000000e+00 -0.0000000000e+00 -4.4721471353e+01 1.0000100000e+04 1.0000000000e+04 0.0000e+00 -1.0000e+00
      -24  1    1    2    0    0 +1.2260113788e+03 -7.2198414650e+03 +6.7011098984e+03 9.9267548182e+03 7.9829010000e+01 0.0000e+00 -1.0000e+00
       24  1    1    2    0    0 -7.7455309835e+02 +6.6146066369e+03 -6.4263532071e+03 9.2551251572e+03 7.9829010000e+01 0.0000e+00 -1.0000e+00
       22  1    1    2    0    0 -2.4525110837e+01 +3.2192900813e+01 -5.9587287988e+01 7.2031304404e+01 0.0000000000e+00 0.0000e+00 -1.0000e+00
       22  1    1    2    0    0 -4.2693316959e+02 +5.7304192725e+02 -2.1516940332e+02 7.4628872014e+02 0.0000000000e+00 0.0000e+00 -1.0000e+00
</event>
<event>
 6      1 +1.4834189e-01 1.00749300e+04 7.81653100e-03 6.93422100e-02
  1000022 -1    0    0    0    0 +0.0000000000e+00 +0.0000000000e+00 +4.4721471353e+01 1.0000100000e+04 1.0000000000e+04 0.0000e+00 -1.0000e+00
  1000022 -1    0    0    0    0 -0.0000000000e+00 -0.0000000000e+00 -4.4721471353e+01 1.0000100000e+04 1.0000000000e+04 0.0000e+00 -1.0000e+00
      -24  1    1    2    0    0 -6.6542861312e+03 +6.1790491202e+03 +4.0055490545e+03 9.9252691573e+03 7.9829010000e+01 0.0000e+00 1.0000e+00
       24  1    1    2    0    0 +6.6552755408e+03 -6.0196704620e+03 -3.9252073472e+03 9.7950370282e+03 7.9829010000e+01 0.0000e+00 1.0000e+00
       22  1    1    2    0    0 -5.2910400375e+01 -1.3288546424e+02 -1.3739337074e+02 1.9833052059e+02 0.0000000000e+00 0.0000e+00 1.0000e+00
       22  1    1    2    0    0 +5.1920990762e+01 -2.6493193971e+01 +5.7051663384e+01 8.1563293848e+01 0.0000000000e+00 0.0000e+00 -1.0000e+00
</event>
<event>
 6      1 +1.4834189e-01 1.00625500e+04 7.81653100e-03 6.93496200e-02
  1000022 -1    0    0    0    0 +0.0000000000e+00 +0.0000000000e+00 +4.4721471353e+01 1.0000100000e+04 1.0000000000e+04 0.0000e+00 -1.0000e+00
  1000022 -1    0    0    0    0 -0.0000000000e+00 -0.0000000000e+00 -4.4721471353e+01 1.0000100000e+04 1.0000000000e+04 0.0000e+00 -1.0000e+00
      -24  1    1    2    0    0 +5.6667348217e+03 -4.0917752903e+03 -2.4507879997e+03 7.4072426082e+03 7.9829010000e+01 0.0000e+00 -1.0000e+00
       24  1    1    2    0    0 -7.9653269739e+03 +5.3985278181e+03 +2.4349094464e+03 9.9260109353e+03 7.9829010000e+01 0.0000e+00 -1.0000e+00
       22  1    1    2    0    0 +2.3082251042e+03 -1.3124795332e+03 +1.2743503385e+01 2.6553094083e+03 0.0000000000e+00 0.0000e+00 -1.0000e+00
       22  1    1    2    0    0 -9.6329519321e+00 +5.7270054339e+00 +3.1350499540e+00 1.1637048268e+01 0.0000000000e+00 0.0000e+00 -1.0000e+00
</event>
<event>
 6      1 +1.4834189e-01 1.00428100e+04 7.81653100e-03 6.93614700e-02
  1000022 -1    0    0    0    0 +0.0000000000e+00 +0.0000000000e+00 +4.4721471353e+01 1.0000100000e+04 1.0000000000e+04 0.0000e+00 1.0000e+00
  1000022 -1    0    0    0    0 -0.0000000000e+00 -0.0000000000e+00 -4.4721471353e+01 1.0000100000e+04 1.0000000000e+04 0.0000e+00 1.0000e+00
      -24  1    1    2    0    0 +6.5897787398e+03 -1.9667763764e+03 +5.1656530272e+03 8.6013799487e+03 7.9829010000e+01 0.0000e+00 1.0000e+00
       24  1    1    2    0    0 -5.2959592414e+03 +1.8991244231e+03 -3.9934863666e+03 6.8998669474e+03 7.9829010000e+01 0.0000e+00 1.0000e+00
       22  1    1    2    0    0 -2.3320808081e+03 +8.6180766401e+02 -1.7796517968e+03 3.0575274100e+03 0.0000000000e+00 0.0000e+00 1.0000e+00
       22  1    1    2    0    0 +1.0382613097e+03 -7.9415571066e+02 +6.0748513621e+02 1.4414256938e+03 0.0000000000e+00 0.0000e+00 -1.0000e+00
</event>
<event>
 6      1 +1.4834189e-01 1.00033400e+04 7.81653100e-03 6.93852400e-02
  1000022 -1    0    0    0    0 +0.0000000000e+00 +0.0000000000e+00 +4.4721471353e+01 1.0000100000e+04 1.0000000000e+04 0.0000e+00 -1.0000e+00
  1000022 -1    0    0    0    0 -0.0000000000e+00 -0.0000000000e+00 -4.4721471353e+01 1.0000100000e+04 1.0000000000e+04 0.0000e+00 -1.0000e+00
      -24  1    1    2    0    0 -1.1004396471e+03 -4.7340027693e+03 +8.5346513391e+03 9.8218326084e+03 7.9829010000e+01 0.0000e+00 -1.0000e+00
       24  1    1    2    0    0 +7.9106174426e+02 +2.8126470180e+03 -5.6071495119e+03 6.3232317885e+03 7.9829010000e+01 0.0000e+00 -1.0000e+00
       22  1    1    2    0    0 -1.0265939635e+02 -6.7289353336e+01 +1.3371324650e+02 1.8151044328e+02 0.0000000000e+00 0.0000e+00 -1.0000e+00
       22  1    1    2    0    0 +4.1203729924e+02 +1.9886451046e+03 -3.0612150736e+03 3.6736251598e+03 0.0000000000e+00 0.0000e+00 -1.0000e+00
</event>
<event>
 6      1 +1.4834189e-01 7.15556400e+03 7.81653100e-03 7.14697400e-02
  1000022 -1    0    0    0    0 +0.0000000000e+00 +0.0000000000e+00 +4.4721471353e+01 1.0000100000e+04 1.0000000000e+04 0.0000e+00 -1.0000e+00
  1000022 -1    0    0    0    0 -0.0000000000e+00 -0.0000000000e+00 -4.4721471353e+01 1.0000100000e+04 1.0000000000e+04 0.0000e+00 -1.0000e+00
      -24  1    1    2    0    0 +3.5247667883e+03 -5.6167698440e+03 -4.8600668952e+03 8.2218433024e+03 7.9829010000e+01 0.0000e+00 1.0000e+00
       24  1    1    2    0    0 +9.3103869658e+02 +4.7677033472e+03 -3.3368017324e+02 4.8698607157e+03 7.9829010000e+01 0.0000e+00 1.0000e+00
       22  1    1    2    0    0 +8.7042050221e+00 +5.9707669092e+00 +4.9283867254e+00 1.1649130365e+01 0.0000000000e+00 0.0000e+00 1.0000e+00
       22  1    1    2    0    0 -4.4645096899e+03 +8.4309572989e+02 +5.1888186817e+03 6.8968468515e+03 0.0000000000e+00 0.0000e+00 1.0000e+00
</event>
<event>
 6      1 +1.4834189e-01 1.01198400e+04 7.81653100e-03 6.93154000e-02
  1000022 -1    0    0    0    0 +0.0000000000e+00 +0.0000000000e+00 +4.4721471353e+01 1.0000100000e+04 1.0000000000e+04 0.0000e+00 -1.0000e+00
  1000022 -1    0    0    0    0 -0.0000000000e+00 -0.0000000000e+00 -4.4721471353e+01 1.0000100000e+04 1.0000000000e+04 0.0000e+00 -1.0000e+00
      -24  1    1    2    0    0 +1.0398114672e+03 +9.8111697136e+03 -5.2431445774e+02 9.8803611957e+03 7.9829010000e+01 0.0000e+00 1.0000e+00
       24  1    1    2    0    0 -1.9267188398e+02 -1.2822787403e+03 +1.8319000642e+02 1.3119803627e+03 7.9829010000e+01 0.0000e+00 -1.0000e+00
       22  1    1    2    0    0 -1.1370835791e+03 -7.0892362121e+03 -3.4242277372e+02 7.1880096336e+03 0.0000000000e+00 0.0000e+00 1.0000e+00
       22  1    1    2    0    0 +2.8994399583e+02 -1.4396547612e+03 +6.8354722504e+02 1.6198488081e+03 0.0000000000e+00 0.0000e+00 1.0000e+00
</event>
<event>
 6      1 +1.4834189e-01 7.46891500e+03 7.81653100e-03 7.11960200e-02
  1000022 -1    0    0    0    0 +0.0000000000e+00 +0.0000000000e+00 +4.4721471353e+01 1.0000100000e+04 1.0000000000e+04 0.0000e+00 -1.0000e+00
  1000022 -1    0    0    0    0 -0.0000000000e+00 -0.0000000000e+00 -4.4721471353e+01 1.0000100000e+04 1.0000000000e+04 0.0000e+00 -1.0000e+00
      -24  1    1    2    0    0 +4.6533675668e+03 +7.3955798280e+03 -2.5923475852e+03 9.1145526153e+03 7.9829010000e+01 0.0000e+00 -1.0000e+00
       24  1    1    2    0    0 -4.1157806531e+03 -1.6136091957e+03 -8.9273278109e+01 4.4224119449e+03 7.9829010000e+01 0.0000e+00 -1.0000e+00
       22  1    1    2    0    0 -5.5216085282e+02 -5.8105826559e+03 +2.6944326673e+03 6.4286639209e+03 0.0000000000e+00 0.0000e+00 -1.0000e+00
       22  1    1    2    0    0 +1.4573939200e+01 +2.8612023679e+01 -1.2811803988e+01 3.4571518975e+01 0.0000000000e+00 0.0000e+00 -1.0000e+00
</event>
<event>
 6      1 +1.4834189e-01 1.00817200e+04 7.81653100e-03 6.93381500e-02
  1000022 -1    0    0    0    0 +0.0000000000e+00 +0.0000000000e+00 +4.4721471353e+01 1.0000100000e+04 1.0000000000e+04 0.0000e+00 1.0000e+00
  1000022 -1    0    0    0    0 -0.0000000000e+00 -0.0000000000e+00 -4.4721471353e+01 1.0000100000e+04 1.0000000000e+04 0.0000e+00 1.0000e+00
      -24  1    1    2    0    0 +9.4295924814e+02 +4.3461658408e+03 -1.3745379406e+03 4.6555404499e+03 7.9829010000e+01 0.0000e+00 1.0000e+00
       24  1    1    2    0    0 -1.6881655468e+03 -9.5651769655e+03 +2.0068353010e+03 9.9184814307e+03 7.9829010000e+01 0.0000e+00 1.0000e+00
       22  1    1    2    0    0 +1.3576096696e+02 +2.6444672689e+03 +1.9239413876e+02 2.6549300708e+03 0.0000000000e+00 0.0000e+00 1.0000e+00
       22  1    1    2    0    0 +6.0944533168e+02 +2.5745438559e+03 -8.2469149916e+02 2.7712480486e+03 0.0000000000e+00 0.0000e+00 1.0000e+00
</event>
<event>
 6      1 +1.4834189e-01 1.00172400e+04 7.81653100e-03 6.93768600e-02
  1000022 -1    0    0    0    0 +0.0000000000e+00 +0.0000000000e+00 +4.4721471353e+01 1.0000100000e+04 1.0000000000e+04 0.0000e+00 1.0000e+00
  1000022 -1    0    0    0    0 -0.0000000000e+00 -0.0000000000e+00 -4.4721471353e+01 1.0000100000e+04 1.0000000000e+04 0.0000e+00 1.0000e+00
      -24  1    1    2    0    0 +2.2997491093e+02 +5.1596116886e+03 -6.7320907652e+03 8.4853933308e+03 7.9829010000e+01 0.0000e+00 -1.0000e+00
       24  1    1    2    0    0 -7.5227124669e+01 -5.9574158425e+03 +8.0097906266e+03 9.9829645493e+03 7.9829010000e+01 0.0000e+00 -1.0000e+00
       22  1    1    2    0    0 -7.8979261549e+01 +7.5093938443e+02 -1.1627205394e+03 1.3863862144e+03 0.0000000000e+00 0.0000e+00 -1.0000e+00
       22  1    1    2    0    0 -7.5768524716e+01 +4.6864769473e+01 -1.1497932196e+02 1.4545590546e+02 0.0000000000e+00 0.0000e+00 -1.0000e+00
</event>
<event>
 6      1 +1.4834189e-01 1.04561700e+04 7.81653100e-03 6.91189600e-02
  1000022 -1    0    0    0    0 +0.0000000000e+00 +0.0000000000e+00 +4.4721471353e+01 1.0000100000e+04 1.0000000000e+04 0.0000e+00 -1.0000e+00
  1000022 -1    0    0    0    0 -0.0000000000e+00 -0.0000000000e+00 -4.4721471353e+01 1.0000100000e+04 1.0000000000e+04 0.0000e+00 -1.0000e+00
      -24  1    1    2    0    0 +1.0814039087e+03 +1.6573047830e+02 -1.9261767786e+03 2.2166259627e+03 7.9829010000e+01 0.0000e+00 1.0000e+00
       24  1    1    2    0    0 -6.8968168616e+03 +5.2770576943e+03 +3.9583774284e+03 9.5440319188e+03 7.9829010000e+01 0.0000e+00 -1.0000e+00
       22  1    1    2    0    0 +2.4672218205e+01 +6.7198783177e+00 -3.0398483989e+01 3.9723329979e+01 0.0000000000e+00 0.0000e+00 -1.0000e+00
       22  1    1    2    0    0 +5.7907407347e+03 -5.4495080509e+03 -2.0018021657e+03 8.1998187885e+03 0.0000000000e+00 0.0000e+00 -1.0000e+00
</event>
<event>
 6      1 +1.4834189e-01 1.01422100e+04 7.81653100e-03 6.93021000e-02
  1000022 -1    0    0    0    0 +0.0000000000e+00 +0.0000000000e+00 +4.4721471353e+01 1.0000100000e+04 1.0000000000e+04 0.0000e+00 -1.0000e+00
  1000022 -1    0    0    0    0 -0.0000000000e+00 -0.0000000000e+00 -4.4721471353e+01 1.0000100000e+04 1.0000000000e+04 0.0000e+00 -1.0000e+00
      -24  1    1    2    0    0 +3.1180834741e+02 -4.3947765812e+03 -1.2565707403e+03 4.5822078020e+03 7.9829010000e+01 0.0000e+00 1.0000e+00
       24  1    1    2    0    0 -2.2307478638e+03 +7.5535352685e+03 +3.7725917563e+03 8.7333242419e+03 7.9829010000e+01 0.0000e+00 1.0000e+00
       22  1    1    2    0    0 -2.7323773245e+02 +9.7843193460e+02 +4.8258347962e+02 1.1246664945e+03 0.0000000000e+00 0.0000e+00 1.0000e+00
       22  1    1    2    0    0 +2.1921772488e+03 -4.1371906219e+03 -2.9986044956e+03 5.5600014616e+03 0.0000000000e+00 0.0000e+00 1.0000e+00
</event>
<event>
 6      1 +1.4834189e-01 1.04344000e+04 7.81653100e-03 6.91314500e-02
  1000022 -1    0    0    0    0 +0.0000000000e+00 +0.0000000000e+00 +4.4721471353e+01 1.0000100000e+04 1.0000000000e+04 0.0000e+00 1.0000e+00
  1000022 -1    0    0    0    0 -0.0000000000e+00 -0.0000000000e+00 -4.4721471353e+01 1.0000100000e+04 1.0000000000e+04 0.0000e+00 1.0000e+00
      -24  1    1    2    0    0 +8.4932388951e+03 -4.1490875085e+03 +1.4656522520e+03 9.5658007128e+03 7.9829010000e+01 0.0000e+00 -1.0000e+00
       24  1    1    2    0    0 -7.6278625604e+03 +2.8976384977e+03 -1.5930166489e+03 8.3141247776e+03 7.9829010000e+01 0.0000e+00 -1.0000e+00
       22  1    1    2    0    0 -1.1619543006e+03 +4.7058969819e+02 -9.0965598044e+01 1.2569276832e+03 0.0000000000e+00 0.0000e+00 1.0000e+00
       22  1    1    2    0    0 +2.9657796588e+02 +7.8085931261e+02 +2.1832999496e+02 8.6334682639e+02 0.0000000000e+00 0.0000e+00 -1.0000e+00
</event>
<event>
 6      1 +1.4834189e-01 1.00113200e+04 7.81653100e-03 6.93804200e-02
  1000022 -1    0    0    0    0 +0.0000000000e+00 +0.0000000000e+00 +4.4721471353e+01 1.0000100000e+04 1.0000000000e+04 0.0000e+00 1.0000e+00
  1000022 -1    0    0    0    0 -0.0000000000e+00 -0.0000000000e+00 -4.4721471353e+01 1.0000100000e+04 1.0000000000e+04 0.0000e+00 1.0000e+00
      -24  1    1    2    0    0 +4.0241767200e+03 +5.2273212386e+03 -7.5001646776e+03 9.9888802409e+03 7.9829010000e+01 0.0000e+00 -1.0000e+00
       24  1    1    2    0    0 -3.9873668603e+03 -5.1626677176e+03 +7.4704026845e+03 9.9179393717e+03 7.9829010000e+01 0.0000e+00 -1.0000e+00
       22  1    1    2    0    0 -3.1918813105e+01 -3.1461920548e+01 +3.8083898068e+01 5.8813657994e+01 0.0000000000e+00 0.0000e+00 -1.0000e+00
       22  1    1    2    0    0 -4.8910465482e+00 -3.3191600514e+01 -8.3219049950e+00 3.4566729434e+01 0.0000000000e+00 0.0000e+00 1.0000e+00
</event>
<event>
 6      1 +1.4834189e-01 1.00194800e+04 7.81653100e-03 6.93755100e-02
  1000022 -1    0    0    0    0 +0.0000000000e+00 +0.0000000000e+00 +4.4721471353e+01 1.0000100000e+04 1.0000000000e+04 0.0000e+00 1.0000e+00
  1000022 -1    0    0    0    0 -0.0000000000e+00 -0.0000000000e+00 -4.4721471353e+01 1.0000100000e+04 1.0000000000e+04 0.0000e+00 1.0000e+00
      -24  1    1    2    0    0 -7.7618759999e+03 -6.0313689662e+03 +1.1458593013e+03 9.8966406853e+03 7.9829010000e+01 0.0000e+00 1.0000e+00
       24  1    1    2    0    0 +8.4365577290e+02 +3.6218136900e+02 -2.0519539535e+02 9.4414417771e+02 7.9829010000e+01 0.0000e+00 1.0000e+00
       22  1    1    2    0    0 -5.1288161102e+01 -6.3630788853e+01 +1.9760107474e+01 8.4082189593e+01 0.0000000000e+00 0.0000e+00 1.0000e+00
       22  1    1    2    0    0 +6.9695083881e+03 +5.7328183861e+03 -9.6042401343e+02 9.0753329474e+03 0.0000000000e+00 0.0000e+00 1.0000e+00
</event>
<event>
 6      1 +1.4834189e-01 1.00446000e+04 7.81653100e-03 6.93603900e-02
  1000022 -1    0    0    0    0 +0.0000000000e+00 +0.0000000000e+00 +4.4721471353e+01 1.0000100000e+04 1.0000000000e+04 0.0000e+00 1.0000e+00
  1000022 -1    0    0    0    0 -0.0000000000e+00 -0.0000000000e+00 -4.4721471353e+01 1.0000100000e+04 1.0000000000e+04 0.0000e+00 1.0000e+00
      -24  1    1    2    0    0 +9.7369630275e+03 +1.0199305942e+02 -1.3770278735e+03 9.8347053854e+03 7.9829010000e+01 0.0000e+00 -1.0000e+00
       24  1    1    2    0    0 -9.6305426880e+03 +5.5951160065e+01 +1.2568264170e+03 9.7126962432e+03 7.9829010000e+01 0.0000e+00 -1.0000e+00
       22  1    1    2    0    0 -2.1282821266e+02 -1.9452186136e+02 +1.6440365174e+02 3.3190836591e+02 0.0000000000e+00 0.0000e+00 1.0000e+00
       22  1    1    2    0    0 +1.0640787324e+02 +3.6577641870e+01 -4.4202195253e+01 1.2089000553e+02 0.0000000000e+00 0.0000e+00 1.0000e+00
</event>
<event>
 6      1 +1.4834189e-01 1.00206500e+04 7.81653100e-03 6.93748000e-02
  1000022 -1    0    0    0    0 +0.0000000000e+00 +0.0000000000e+00 +4.4721471353e+01 1.0000100000e+04 1.0000000000e+04 0.0000e+00 -1.0000e+00
  1000022 -1    0    0    0    0 -0.0000000000e+00 -0.0000000000e+00 -4.4721471353e+01 1.0000100000e+04 1.0000000000e+04 0.0000e+00 -1.0000e+00
      -24  1    1    2    0    0 +9.8375802481e+03 -7.7224808049e+02 +1.4868160739e+03 9.9795464297e+03 7.9829010000e+01 0.0000e+00 -1.0000e+00
       24  1    1    2    0    0 -7.9466948883e+03 +5.8925310203e+02 -1.2161237122e+03 8.0611728936e+03 7.9829010000e+01 0.0000e+00 -1.0000e+00
       22  1    1    2    0    0 -1.8636294705e+03 +1.2544801685e+02 -2.9562803847e+02 1.8910970217e+03 0.0000000000e+00 0.0000e+00 1.0000e+00
       22  1    1    2    0    0 -2.7255889236e+01 +5.7546961616e+01 +2.4935676840e+01 6.8383654983e+01 0.0000000000e+00 0.0000e+00 -1.0000e+00
</event>
<event>
 6      1 +1.4834189e-01 1.00186800e+04 7.81653100e-03 6.93759900e-02
  1000022 -1    0    0    0    0 +0.0000000000e+00 +0.0000000000e+00 +4.4721471353e+01 1.0000100000e+04 1.0000000000e+04 0.0000e+00 -1.0000e+00
  1000022 -1    0    0    0    0 -0.0000000000e+00 -0.0000000000e+00 -4.4721471353e+01 1.0000100000e+04 1.0000000000e+04 0.0000e+00 -1.0000e+00
      -24  1    1    2    0    0 +3.4118736683e+03 -5.2196462306e+03 -9.6547613001e+02 6.3106343207e+03 7.9829010000e+01 0.0000e+00 -1.0000e+00
       24  1    1    2    0    0 -5.4231346423e+03 +8.0049797711e+03 +2.1762818272e+03 9.9112393648e+03 7.9829010000e+01 0.0000e+00 -1.0000e+00
       22  1    1    2    0    0 +2.0625031042e+03 -2.8185487429e+03 -1.2455890432e+03 3.7080491010e+03 0.0000000000e+00 0.0000e+00 1.0000e+00
       22  1    1    2    0    0 -5.1242130191e+01 +3.3215202467e+01 +3.4783345914e+01 7.0277213479e+01 0.0000000000e+00 0.0000e+00 -1.0000e+00
</event>
<event>
 6      1 +1.4834189e-01 1.00446400e+04 7.81653100e-03 6.93603700e-02
  1000022 -1    0    0    0    0 +0.0000000000e+00 +0.0000000000e+00 +4.4721471353e+01 1.0000100000e+04 1.0000000000e+04 0.0000e+00 1.0000e+00
  1000022 -1    0    0    0    0 -0.0000000000e+00 -0.0000000000e+00 -4.4721471353e+01 1.0000100000e+04 1.0000000000e+04 0.0000e+00 1.0000e+00
      -24  1    1    2    0    0 -6.8347726621e+03 -1.3114411082e+03 -4.1581843704e+03 8.1074573728e+03 7.9829010000e+01 0.0000e+00 1.0000e+00
       24  1    1    2    0    0 +8.6496222925e+03 +1.8056390288e+03 +4.5858973579e+03 9.9555575109e+03 7.9829010000e+01 0.0000e+00 1.0000e+00
       22  1    1    2    0    0 -8.3438074936e+01 +1.4115822083e+01 -1.2459012928e+01 8.5535932714e+01 0.0000000000e+00 0.0000e+00 -1.0000e+00
       22  1    1    2    0    0 -1.7314115555e+03 -5.0831374270e+02 -4.1525397457e+02 1.8516491835e+03 0.0000000000e+00 0.0000e+00 1.0000e+00
</event>
<event>
 6      1 +1.4834189e-01 8.82226000e+03 7.81653100e-03 7.01523500e-02
  1000022 -1    0    0    0    0 +0.0000000000e+00 +0.0000000000e+00 +4.4721471353e+01 1.0000100000e+04 1.0000000000e+04 0.0000e+00 -1.0000e+00
  1000022 -1    0    0    0    0 -0.0000000000e+00 -0.0000000000e+00 -4.4721471353e+01 1.0000100000e+04 1.0000000000e+04 0.0000e+00 -1.0000e+00
      -24  1    1    2    0    0 -7.7409112570e+02 +9.1591750912e+01 +2.0847937823e+03 2.2271829528e+03 7.9829010000e+01 0.0000e+00 1.0000e+00
       24  1    1    2    0    0 -5.6538673379e+03 +3.6172024521e+03 -4.0566465693e+03 7.8430302507e+03 7.9829010000e+01 0.0000e+00 1.0000e+00
       22  1    1    2    0    0 +7.2400324011e+03 -4.3515746773e+03 +2.4413431906e+03 8.7928623278e+03 0.0000000000e+00 0.0000e+00 1.0000e+00
       22  1    1    2    0    0 -8.1207393750e+02 +6.4278047431e+02 -4.6949040364e+02 1.1371244687e+03 0.0000000000e+00 0.0000e+00 -1.0000e+00
</event>
<event>
 6      1 +1.4834189e-01 1.04602700e+04 7.81653100e-03 6.91166100e-02
  1000022 -1    0    0    0    0 +0.0000000000e+00 +0.0000000000e+00 +4.4721471353e+01 1.0000100000e+04 1.0000000000e+04 0.0000e+00 1.0000e+00
  1000022 -1    0    0    0    0 -0.0000000000e+00 -0.0000000000e+00 -4.4721471353e+01 1.0000100000e+04 1.0000000000e+04 0.0000e+00 1.0000e+00
      -24  1    1    2    0    0 +2.4418866107e+02 -6.9233364337e+03 -6.5583224740e+03 9.5399256716e+03 7.9829010000e+01 0.0000e+00 -1.0000e+00
       24  1    1    2    0    0 -6.2752646956e+01 +1.7189454497e+03 +4.3710616956e+03 4.6980064252e+03 7.9829010000e+01 0.0000e+00 -1.0000e+00
       22  1    1    2    0    0 -5.4257372970e+02 +4.5570345744e+03 +1.9104735757e+03 4.9710018757e+03 0.0000000000e+00 0.0000e+00 -1.0000e+00
       22  1    1    2    0    0 +3.6113771559e+02 +6.4735640960e+02 +2.7678720272e+02 7.9126602749e+02 0.0000000000e+00 0.0000e+00 -1.0000e+00
</event>
<event>
 6      1 +1.4834189e-01 1.00044800e+04 7.81653100e-03 6.93845500e-02
  1000022 -1    0    0    0    0 +0.0000000000e+00 +0.0000000000e+00 +4.4721471353e+01 1.0000100000e+04 1.0000000000e+04 0.0000e+00 -1.0000e+00
  1000022 -1    0    0    0    0 -0.0000000000e+00 -0.0000000000e+00 -4.4721471353e+01 1.0000100000e+04 1.0000000000e+04 0.0000e+00 -1.0000e+00
      -24  1    1    2    0    0 -5.1407839277e+03 -2.7329160264e+03 -7.8291659095e+03 9.7569821619e+03 7.9829010000e+01 0.0000e+00 1.0000e+00
       24  1    1    2    0    0 +5.2207069110e+03 +2.8079354703e+03 +7.9820137863e+03 9.9427963376e+03 7.9829010000e+01 0.0000e+00 1.0000e+00
       22  1    1    2    0    0 -1.3359192054e+02 -7.4591474411e+01 -1.8325778576e+02 2.3873438238e+02 0.0000000000e+00 0.0000e+00 -1.0000e+00
       22  1    1    2    0    0 +5.3668937257e+01 -4.2796947418e-01 +3.0409908974e+01 6.1687118168e+01 0.0000000000e+00 0.0000e+00 1.0000e+00
</event>
<event>
 6      1 +1.4834189e-01 1.01067500e+04 7.81653100e-03 6.93232000e-02
  1000022 -1    0    0    0    0 +0.0000000000e+00 +0.0000000000e+00 +4.4721471353e+01 1.0000100000e+04 1.0000000000e+04 0.0000e+00 -1.0000e+00
  1000022 -1    0    0    0    0 -0.0000000000e+00 -0.0000000000e+00 -4.4721471353e+01 1.0000100000e+04 1.0000000000e+04 0.0000e+00 -1.0000e+00
      -24  1    1    2    0    0 -8.1555381891e+01 +7.1328428686e+03 +6.3627320746e+03 9.5590182964e+03 7.9829010000e+01 0.0000e+00 -1.0000e+00
       24  1    1    2    0    0 +2.7645313406e+02 -7.1266295497e+03 -6.8562857290e+03 9.8934474145e+03 7.9829010000e+01 0.0000e+00 -1.0000e+00
       22  1    1    2    0    0 -2.8624659449e-01 +3.1884264980e+01 +3.1032327810e+01 4.4493748547e+01 0.0000000000e+00 0.0000e+00 1.0000e+00
       22  1    1    2    0    0 -1.9461150557e+02 -3.8097583789e+01 +4.6252132664e+02 5.0324054048e+02 0.0000000000e+00 0.0000e+00 1.0000e+00
</event>
<event>
 6      1 +1.4834189e-01 1.00306000e+04 7.81653100e-03 6.93688100e-02
  1000022 -1    0    0    0    0 +0.0000000000e+00 +0.0000000000e+00 +4.4721471353e+01 1.0000100000e+04 1.0000000000e+04 0.0000e+00 1.0000e+00
  1000022 -1    0    0    0    0 -0.0000000000e+00 -0.0000000000e+00 -4.4721471353e+01 1.0000100000e+04 1.0000000000e+04 0.0000e+00 1.0000e+00
      -24  1    1    2    0    0 -4.0866807331e+03 -4.8870485682e+03 -7.6552110841e+03 9.9595598565e+03 7.9829010000e+01 0.0000e+00 -1.0000e+00
       24  1    1    2    0    0 +3.9221062852e+03 +4.6392281072e+03 +7.2675756186e+03 9.4725594844e+03 7.9829010000e+01 0.0000e+00 -1.0000e+00
       22  1    1    2    0    0 -5.5547813036e+01 -2.5869547156e+01 +3.5934412447e+01 7.1035730454e+01 0.0000000000e+00 0.0000e+00 1.0000e+00
       22  1    1    2    0    0 +2.2012226099e+02 +2.7369000822e+02 +3.5170105304e+02 4.9704492864e+02 0.0000000000e+00 0.0000e+00 1.0000e+00
</event>
<event>
 6      1 +1.4834189e-01 1.00071100e+04 7.81653100e-03 6.93829600e-02
  1000022 -1    0    0    0    0 +0.0000000000e+00 +0.0000000000e+00 +4.4721471353e+01 1.0000100000e+04 1.0000000000e+04 0.0000e+00 1.0000e+00
  1000022 -1    0    0    0    0 -0.0000000000e+00 -0.0000000000e+00 -4.4721471353e+01 1.0000100000e+04 1.0000000000e+04 0.0000e+00 1.0000e+00
      -24  1    1    2    0    0 +9.6737728394e+02 +1.7248083764e+03 -2.0444235656e+03 2.8454917205e+03 7.9829010000e+01 0.0000e+00 1.0000e+00
       24  1    1    2    0    0 -2.4218778011e+03 -6.3800717298e+03 +6.9380765822e+03 9.7321162494e+03 7.9829010000e+01 0.0000e+00 1.0000e+00
       22  1    1    2    0    0 +3.1042532047e+00 -1.5355065331e+02 +2.1100088960e+02 2.6097665592e+02 0.0000000000e+00 0.0000e+00 1.0000e+00
       22  1    1    2    0    0 +1.4513962639e+03 +4.8088140067e+03 -5.1046539062e+03 7.1616153742e+03 0.0000000000e+00 0.0000e+00 1.0000e+00
</event>
<event>
 6      1 +1.4834189e-01 1.05671400e+04 7.81653100e-03 6.90557700e-02
  1000022 -1    0    0    0    0 +0.0000000000e+00 +0.0000000000e+00 +4.4721471353e+01 1.0000100000e+04 1.0000000000e+04 0.0000e+00 1.0000e+00
  1000022 -1    0    0    0    0 -0.0000000000e+00 -0.0000000000e+00 -4.4721471353e+01 1.0000100000e+04 1.0000000000e+04 0.0000e+00 1.0000e+00
      -24  1    1    2    0    0 +1.0464908562e+03 +3.3746796565e+03 -7.7326508542e+02 3.6177226897e+03 7.9829010000e+01 0.0000e+00 1.0000e+00
       24  1    1    2    0    0 +1.8681916093e+03 -8.4341442172e+03 -1.9311371232e+03 8.8521518189e+03 7.9829010000e+01 0.0000e+00 1.0000e+00
       22  1    1    2    0    0 +7.6263179047e+01 -5.7309292376e+02 -5.6570668242e+01 5.8090602703e+02 0.0000000000e+00 0.0000e+00 1.0000e+00
       22  1    1    2    0    0 -2.9909456446e+03 +5.6325574845e+03 +2.7609728769e+03 6.9494194643e+03 0.0000000000e+00 0.0000e+00 1.0000e+00
</event>
<event>
 6      1 +1.4834189e-01 1.00261500e+04 7.81653100e-03 6.93714900e-02
  1000022 -1    0    0    0    0 +0.0000000000e+00 +0.0000000000e+00 +4.4721471353e+01 1.0000100000e+04 1.0000000000e+04 0.0000e+00 -1.0000e+00
  1000022 -1    0    0    0    0 -0.0000000000e+00 -0.0000000000e+00 -4.4721471353e+01 1.0000100000e+04 1.0000000000e+04 0.0000e+00 -1.0000e+00
      -24  1    1    2    0    0 +8.2928278150e+03 +3.5673984421e+03 -2.4085685579e+03 9.3437091127e+03 7.9829010000e+01 0.0000e+00 -1.0000e+00
       24  1    1    2    0    0 -4.4419200379e+01 -3.6309194270e+01 +7.8701417622e+01 1.2592857866e+02 7.9829010000e+01 0.0000e+00 -1.0000e+00
       22  1    1    2    0    0 -8.8073844149e+03 -3.7667581526e+03 +2.5011610608e+03 9.9002168595e+03 0.0000000000e+00 0.0000e+00 -1.0000e+00
       22  1    1    2    0    0 +5.5897580031e+02 +2.3566890481e+02 -1.7129392052e+02 6.3034544913e+02 0.0000000000e+00 0.0000e+00 -1.0000e+00
</event>
<event>
 6      1 +1.4834189e-01 1.00407000e+04 7.81653100e-03 6.93627400e-02
  1000022 -1    0    0    0    0 +0.0000000000e+00 +0.0000000000e+00 +4.4721471353e+01 1.0000100000e+04 1.0000000000e+04 0.0000e+00 1.0000e+00
  1000022 -1    0    0    0    0 -0.0000000000e+00 -0.0000000000e+00 -4.4721471353e+01 1.0000100000e+04 1.0000000000e+04 0.0000e+00 1.0000e+00
      -24  1    1    2    0    0 -7.6772416409e+03 -2.6572902692e+02 +6.3019068052e+03 9.9363500935e+03 7.9829010000e+01 0.0000e+00 1.0000e+00
       24  1    1    2    0    0 +7.6369935787e+03 +2.4856692967e+02 -5.9932118549e+03 9.7113550778e+03 7.9829010000e+01 0.0000e+00 1.0000e+00
       22  1    1    2    0    0 +5.7784059399e+01 +1.6789359355e+01 -3.2380209644e+02 3.2934583308e+02 0.0000000000e+00 0.0000e+00 1.0000e+00
       22  1    1    2    0    0 -1.7535997163e+01 +3.7273790176e-01 +1.5107146152e+01 2.3148995548e+01 0.0000000000e+00 0.0000e+00 1.0000e+00
</event>
<event>
 6      1 +1.4834189e-01 1.00003300e+04 7.81653100e-03 6.93870500e-02
  1000022 -1    0    0    0    0 +0.0000000000e+00 +0.0000000000e+00 +4.4721471353e+01 1.0000100000e+04 1.0000000000e+04 0.0000e+00 -1.0000e+00
  1000022 -1    0    0    0    0 -0.0000000000e+00 -0.0000000000e+00 -4.4721471353e+01 1.0000100000e+04 1.0000000000e+04 0.0000e+00 -1.0000e+00
      -24  1    1    2    0    0 +2.3171948667e+03 +7.8151949174e+03 -5.7490132872e+03 9.9751786999e+03 7.9829010000e+01 0.0000e+00 1.0000e+00
       24  1    1    2    0    0 -2.1845082206e+03 -7.3703991582e+03 +5.4234470148e+03 9.4082416056e+03 7.9829010000e+01 0.0000e+00 1.0000e+00
       22  1    1    2    0    0 +1.4639257930e+00 +2.1581490042e+01 -1.2837632940e+01 2.5153699741e+01 0.0000000000e+00 0.0000e+00 -1.0000e+00
       22  1    1    2    0    0 -1.3415057189e+02 -4.6637724921e+02 +3.3840390537e+02 5.9162599477e+02 0.0000000000e+00 0.0000e+00 1.0000e+00
</event>
<event>
 6      1 +1.4834189e-01 1.00183000e+04 7.81653100e-03 6.93762200e-02
  1000022 -1    0    0    0    0 +0.0000000000e+00 +0.0000000000e+00 +4.4721471353e+01 1.0000100000e+04 1.0000000000e+04 0.0000e+00 1.0000e+00
  1000022 -1    0    0    0    0 -0.0000000000e+00 -0.0000000000e+00 -4.4721471353e+01 1.0000100000e+04 1.0000000000e+04 0.0000e+00 1.0000e+00
      -24  1    1    2    0    0 +6.8755830481e+01 -1.7446588810e+01 -4.9607119860e+01 1.1775094422e+02 7.9829010000e+01 0.0000e+00 1.0000e+00
       24  1    1    2    0    0 -6.3164826862e+03 +3.1859562111e+03 +1.5113495512e+03 7.2345573907e+03 7.9829010000e+01 0.0000e+00 1.0000e+00
       22  1    1    2    0    0 -2.3653190048e+03 +1.3200435713e+03 +4.5897373364e+02 2.7473452482e+03 0.0000000000e+00 0.0000e+00 -1.0000e+00
       22  1    1    2    0    0 +8.6130458604e+03 -4.4885531936e+03 -1.9207161649e+03 9.9005464168e+03 0.0000000000e+00 0.0000e+00 1.0000e+00
</event>
<event>
 6      1 +1.4834189e-01 1.04371800e+04 7.81653100e-03 6.91298500e-02
  1000022 -1    0    0    0    0 +0.0000000000e+00 +0.0000000000e+00 +4.4721471353e+01 1.0000100000e+04 1.0000000000e+04 0.0000e+00 1.0000e+00
  1000022 -1    0    0    0    0 -0.0000000000e+00 -0.0000000000e+00 -4.4721471353e+01 1.0000100000e+04 1.0000000000e+04 0.0000e+00 1.0000e+00
      -24  1    1    2    0    0 -2.7238183235e+03 +1.9685009124e+03 +4.3949016071e+02 3.3902369200e+03 7.9829010000e+01 0.0000e+00 -1.0000e+00
       24  1    1    2    0    0 +5.6567563559e+03 -6.7300746463e+03 +3.7619401090e+03 9.5630206143e+03 7.9829010000e+01 0.0000e+00 -1.0000e+00
       22  1    1    2    0    0 -2.8304451367e+03 +4.7151144678e+03 -4.2211915466e+03 6.9326893908e+03 0.0000000000e+00 0.0000e+00 -1.0000e+00
       22  1    1    2    0    0 -1.0249289565e+02 +4.6459266092e+01 +1.9761276923e+01 1.1425307492e+02 0.0000000000e+00 0.0000e+00 1.0000e+00
</event>
<event>
 6      1 +1.4834189e-01 1.00090100e+04 7.81653100e-03 6.93818200e-02
  1000022 -1    0    0    0    0 +0.0000000000e+00 +0.0000000000e+00 +4.4721471353e+01 1.0000100000e+04 1.0000000000e+04 0.0000e+00 1.0000e+00
  1000022 -1    0    0    0    0 -0.0000000000e+00 -0.0000000000e+00 -4.4721471353e+01 1.0000100000e+04 1.0000000000e+04 0.0000e+00 1.0000e+00
      -24  1    1    2    0    0 +6.9558386149e+03 +3.9788278236e+03 +5.0684496755e+03 9.4821050654e+03 7.9829010000e+01 0.0000e+00 -1.0000e+00
       24  1    1    2    0    0 -5.6235374492e+03 -3.9349887078e+03 -4.6242410336e+03 8.2763692148e+03 7.9829010000e+01 0.0000e+00 -1.0000e+00
       22  1    1    2    0    0 +3.7509493428e+02 +2.0062154395e+02 -2.7969052280e+02 5.0908938524e+02 0.0000000000e+00 0.0000e+00 1.0000e+00
       22  1    1    2    0    0 -1.7073961000e+03 -2.4446065981e+02 -1.6451811913e+02 1.7326363346e+03 0.0000000000e+00 0.0000e+00 1.0000e+00
</event>
<event>
 6      1 +1.4834189e-01 1.01905200e+04 7.81653100e-03 6.92734800e-02
  1000022 -1    0    0    0    0 +0.0000000000e+00 +0.0000000000e+00 +4.4721471353e+01 1.0000100000e+04 1.0000000000e+04 0.0000e+00 -1.0000e+00
  1000022 -1    0    0    0    0 -0.0000000000e+00 -0.0000000000e+00 -4.4721471353e+01 1.0000100000e+04 1.0000000000e+04 0.0000e+00 -1.0000e+00
      -24  1    1    2    0    0 +7.5326379834e+02 +6.4350349420e+02 +6.8606456053e+03 6.9322675863e+03 7.9829010000e+01 0.0000e+00 -1.0000e+00
       24  1    1    2    0    0 -1.6104634646e+03 -2.4969344111e+03 -9.0167094637e+03 9.4939821069e+03 7.9829010000e+01 0.0000e+00 -1.0000e+00
       22  1    1    2    0    0 +9.0692931991e+02 +1.9401353128e+03 +2.4555190567e+03 3.2582540817e+03 0.0000000000e+00 0.0000e+00 -1.0000e+00
       22  1    1    2    0    0 -4.9729653698e+01 -8.6704395858e+01 -2.9945519828e+02 3.1569622502e+02 0.0000000000e+00 0.0000e+00 1.0000e+00
</event>
<event>
 6      1 +1.4834189e-01 1.00252700e+04 7.81653100e-03 6.93720200e-02
  1000022 -1    0    0    0    0 +0.0000000000e+00 +0.0000000000e+00 +4.4721471353e+01 1.0000100000e+04 1.0000000000e+04 0.0000e+00 1.0000e+00
  1000022 -1    0    0    0    0 -0.0000000000e+00 -0.0000000000e+00 -4.4721471353e+01 1.0000100000e+04 1.0000000000e+04 0.0000e+00 1.0000e+00
      -24  1    1    2    0    0 +3.6557872156e+03 +8.5148670968e+00 -9.0249735715e+03 9.7376266773e+03 7.9829010000e+01 0.0000e+00 -1.0000e+00
       24  1    1    2    0    0 -3.7110045519e+03 -1.0537954166e+02 +9.1870838981e+03 9.9091645891e+03 7.9829010000e+01 0.0000e+00 -1.0000e+00
       22  1    1    2    0    0 +8.6839327111e+01 +1.8261078089e+00 -2.2083433728e+02 2.3730193410e+02 0.0000000000e+00 0.0000e+00 1.0000e+00
       22  1    1    2    0    0 -3.1621990840e+01 +9.5038566752e+01 +5.8724010679e+01 1.1610679956e+02 0.0000000000e+00 0.0000e+00 1.0000e+00
</event>
<event>
 6      1 +1.4834189e-01 1.11880100e+04 7.81653100e-03 6.87160500e-02
  1000022 -1    0    0    0    0 +0.0000000000e+00 +0.0000000000e+00 +4.4721471353e+01 1.0000100000e+04 1.0000000000e+04 0.0000e+00 -1.0000e+00
  1000022 -1    0    0    0    0 -0.0000000000e+00 -0.0000000000e+00 -4.4721471353e+01 1.0000100000e+04 1.0000000000e+04 0.0000e+00 -1.0000e+00
      -24  1    1    2    0    0 +5.8742528655e+03 +3.8554656149e+02 -3.7060944262e+03 6.9567953431e+03 7.9829010000e+01 0.0000e+00 1.0000e+00
       24  1    1    2    0    0 -4.7078429596e+03 +2.8384232353e+03 +3.9000136710e+03 6.7406906990e+03 7.9829010000e+01 0.0000e+00 1.0000e+00
       22  1    1    2    0    0 +4.1896356091e+02 -4.0152660533e+03 -1.2670137454e+03 4.2312191831e+03 0.0000000000e+00 0.0000e+00 1.0000e+00
       22  1    1    2    0    0 -1.5853734668e+03 +7.9129625647e+02 +1.0730945006e+03 2.0714947748e+03 0.0000000000e+00 0.0000e+00 1.0000e+00
</event>
<event>
 6      1 +1.4834189e-01 1.00505100e+04 7.81653100e-03 6.93568400e-02
  1000022 -1    0    0    0    0 +0.0000000000e+00 +0.0000000000e+00 +4.4721471353e+01 1.0000100000e+04 1.0000000000e+04 0.0000e+00 -1.0000e+00
  1000022 -1    0    0    0    0 -0.0000000000e+00 -0.0000000000e+00 -4.4721471353e+01 1.0000100000e+04 1.0000000000e+04 0.0000e+00 -1.0000e+00
      -24  1    1    2    0    0 +3.8367799057e+03 -9.0251074991e+03 +1.1641220046e+01 9.8071378905e+03 7.9829010000e+01 0.0000e+00 1.0000e+00
       24  1    1    2    0    0 -3.9505938358e+03 +8.9752803393e+03 -1.9734257917e+02 9.8085761244e+03 7.9829010000e+01 0.0000e+00 1.0000e+00
       22  1    1    2    0    0 +9.1087334518e+00 +1.4632200743e+02 +1.9245934132e+02 2.4193738228e+02 0.0000000000e+00 0.0000e+00 1.0000e+00
       22  1    1    2    0    0 +1.0470519665e+02 -9.6494847614e+01 -6.7579821947e+00 1.4254860275e+02 0.0000000000e+00 0.0000e+00 1.0000e+00
</event>
<event>
 6      1 +1.4834189e-01 1.00664400e+04 7.81653100e-03 6.93472900e-02
  1000022 -1    0    0    0    0 +0.0000000000e+00 +0.0000000000e+00 +4.4721471353e+01 1.0000100000e+04 1.0000000000e+04 0.0000e+00 1.0000e+00
  1000022 -1    0    0    0    0 -0.0000000000e+00 -0.0000000000e+00 -4.4721471353e+01 1.0000100000e+04 1.0000000000e+04 0.0000e+00 1.0000e+00
      -24  1    1    2    0    0 +3.8722260167e+03 -2.0916086181e+03 -8.3912877023e+03 9.4757080427e+03 7.9829010000e+01 0.0000e+00 1.0000e+00
       24  1    1    2    0    0 -9.3832254972e+02 +6.5694106227e+02 +9.6780821140e+02 1.5016811151e+03 7.9829010000e+01 0.0000e+00 1.0000e+00
       22  1    1    2    0    0 -3.1318275846e+03 +1.5564023430e+03 +7.8182122716e+03 8.5647635926e+03 0.0000000000e+00 0.0000e+00 1.0000e+00
       22  1    1    2    0    0 +1.9792411754e+02 -1.2173478717e+02 -3.9473278069e+02 4.5804724960e+02 0.0000000000e+00 0.0000e+00 -1.0000e+00
</event>
<event>
 6      1 +1.4834189e-01 1.00003900e+04 7.81653100e-03 6.93870200e-02
  1000022 -1    0    0    0    0 +0.0000000000e+00 +0.0000000000e+00 +4.4721471353e+01 1.0000100000e+04 1.0000000000e+04 0.0000e+00 -1.0000e+00
  1000022 -1    0    0    0    0 -0.0000000000e+00 -0.0000000000e+00 -4.4721471353e+01 1.0000100000e+04 1.0000000000e+04 0.0000e+00 -1.0000e+00
      -24  1    1    2    0    0 +8.5197054692e+03 -3.1264989604e+02 -5.1147427254e+03 9.9423386111e+03 7.9829010000e+01 0.0000e+00 1.0000e+00
       24  1    1    2    0    0 -7.6950153017e+03 +2.4978537691e+02 +4.6051683539e+03 8.9715997162e+03 7.9829010000e+01 0.0000e+00 1.0000e+00
       22  1    1    2    0    0 -8.7120638617e+02 +6.6569380682e+01 +5.4312045864e+02 1.0287914669e+03 0.0000000000e+00 0.0000e+00 1.0000e+00
       22  1    1    2    0    0 +4.6516218669e+01 -3.7048615487e+00 -3.3546087136e+01 5.7470205851e+01 0.0000000000e+00 0.0000e+00 1.0000e+00
</event>
<event>
 6      1 +1.4834189e-01 1.05735800e+04 7.81653100e-03 6.90521200e-02
  1000022 -1    0    0    0    0 +0.0000000000e+00 +0.0000000000e+00 +4.4721471353e+01 1.0000100000e+04 1.0000000000e+04 0.0000e+00 -1.0000e+00
  1000022 -1    0    0    0    0 -0.0000000000e+00 -0.0000000000e+00 -4.4721471353e+01 1.0000100000e+04 1.0000000000e+04 0.0000e+00 -1.0000e+00
      -24  1    1    2    0    0 +2.2182679728e+03 +2.7813387220e+03 +2.2516256070e+03 4.2110270043e+03 7.9829010000e+01 0.0000e+00 1.0000e+00
       24  1    1    2    0    0 -6.9701185339e+03 -5.9520161691e+03 -4.6650815807e+01 9.1661113796e+03 7.9829010000e+01 0.0000e+00 1.0000e+00
       22  1    1    2    0    0 -1.9708210866e+02 -1.7019015436e+02 -7.5213543391e+00 2.6050454308e+02 0.0000000000e+00 0.0000e+00 -1.0000e+00
       22  1    1    2    0    0 +4.9489326697e+03 +3.3408676014e+03 -2.1974534369e+03 6.3625570730e+03 0.0000000000e+00 0.0000e+00 1.0000e+00
</event>
<event>
 6      1 +1.4834189e-01 1.00522900e+04 7.81653100e-03 6.93557800e-02
  1000022 -1    0    0    0    0 +0.0000000000e+00 +0.0000000000e+00 +4.4721471353e+01 1.0000100000e+04 1.0000000000e+04 0.0000e+00 1.0000e+00
  1000022 -1    0    0    0    0 -0.0000000000e+00 -0.0000000000e+00 -4.4721471353e+01 1.0000100000e+04 1.0000000000e+04 0.0000e+00 1.0000e+00
      -24  1    1    2    0    0 -1.1630605277e+03 +7.5250117079e+03 +5.1849082183e+03 9.2123914864e+03 7.9829010000e+01 0.0000e+00 -1.0000e+00
       24  1    1    2    0    0 +1.1373276674e+03 -8.1754802674e+03 -5.4697385259e+03 9.9023433610e+03 7.9829010000e+01 0.0000e+00 -1.0000e+00
       22  1    1    2    0    0 -5.2104154995e+01 +6.1066816685e+02 +4.0664955744e+02 7.3552315772e+02 0.0000000000e+00 0.0000e+00 1.0000e+00
       22  1    1    2    0    0 +7.7837015317e+01 +3.9800392693e+01 -1.2181924985e+02 1.4994199494e+02 0.0000000000e+00 0.0000e+00 -1.0000e+00
</event>
<event>
 6      1 +1.4834189e-01 1.01091500e+04 7.81653100e-03 6.93217600e-02
  1000022 -1    0    0    0    0 +0.0000000000e+00 +0.0000000000e+00 +4.4721471353e+01 1.0000100000e+04 1.0000000000e+04 0.0000e+00 1.0000e+00
  1000022 -1    0    0    0    0 -0.0000000000e+00 -0.0000000000e+00 -4.4721471353e+01 1.0000100000e+04 1.0000000000e+04 0.0000e+00 1.0000e+00
      -24  1    1    2    0    0 +2.1499347536e+03 +2.3333710712e+03 -5.1411013183e+03 6.0418652282e+03 7.9829010000e+01 0.0000e+00 -1.0000e+00
       24  1    1    2    0    0 -2.7489701638e+03 -3.3696412849e+03 +8.0040204833e+03 9.1094476187e+03 7.9829010000e+01 0.0000e+00 -1.0000e+00
       22  1    1    2    0    0 -8.0674341459e+02 -4.2657343712e+02 +4.0817848317e+02 9.9970471059e+02 0.0000000000e+00 0.0000e+00 -1.0000e+00
       22  1    1    2    0    0 +1.4057788249e+03 +1.4628436509e+03 -3.2710976482e+03 3.8491824425e+03 0.0000000000e+00 0.0000e+00 1.0000e+00
</event>
<event>
 6      1 +1.4834189e-01 1.00001600e+04 7.81653100e-03 6.93871600e-02
  1000022 -1    0    0    0    0 +0.0000000000e+00 +0.0000000000e+00 +4.4721471353e+01 1.0000100000e+04 1.0000000000e+04 0.0000e+00 -1.0000e+00
  1000022 -1    0    0    0    0 -0.0000000000e+00 -0.0000000000e+00 -4.4721471353e+01 1.0000100000e+04 1.0000000000e+04 0.0000e+00 -1.0000e+00
      -24  1    1    2    0    0 +7.1610247224e+03 -1.8904491943e+03 -3.7739457294e+03 8.3128281752e+03 7.9829010000e+01 0.0000e+00 -1.0000e+00
       24  1    1    2    0    0 -8.5991480465e+03 +2.2918652495e+03 +4.5201828783e+03 9.9818044147e+03 7.9829010000e+01 0.0000e+00 -1.0000e+00
       22  1    1    2    0    0 -1.5549505667e+01 +6.1146717007e+00 +7.3108296577e+00 1.8237997883e+01 0.0000000000e+00 0.0000e+00 1.0000e+00
       22  1    1    2    0    0 +1.4536728298e+03 -4.0753072690e+02 -7.5354797857e+02 1.6873294123e+03 0.0000000000e+00 0.0000e+00 -1.0000e+00
</event>
<event>
 6      1 +1.4834189e-01 1.00152100e+04 7.81653100e-03 6.93780800e-02
  1000022 -1    0    0    0    0 +0.0000000000e+00 +0.0000000000e+00 +4.4721471353e+01 1.0000100000e+04 1.0000000000e+04 0.0000e+00 1.0000e+00
  1000022 -1    0    0    0    0 -0.0000000000e+00 -0.0000000000e+00 -4.4721471353e+01 1.0000100000e+04 1.0000000000e+04 0.0000e+00 1.0000e+00
      -24  1    1    2    0    0 +6.3249195120e+01 -1.4861337692e+01 -6.4165945532e+01 1.2128998081e+02 7.9829010000e+01 0.0000e+00 0.0000e+00
       24  1    1    2    0    0 -7.2123144968e+03 +2.6824362822e+03 +6.3377281546e+03 9.9692585302e+03 7.9829010000e+01 0.0000e+00 -1.0000e+00
       22  1    1    2    0    0 -1.2025447593e+01 +1.7918105781e+00 +9.9818613956e+00 1.5730846509e+01 0.0000000000e+00 0.0000e+00 -1.0000e+00
       22  1    1    2    0    0 +7.1610907493e+03 -2.6693667551e+03 -6.2835440705e+03 9.8939206425e+03 0.0000000000e+00 0.0000e+00 -1.0000e+00
</event>
<event>
 6      1 +1.4834189e-01 1.00008100e+04 7.81653100e-03 6.93867700e-02
  1000022 -1    0    0    0    0 +0.0000000000e+00 +0.0000000000e+00 +4.4721471353e+01 1.0000100000e+04 1.0000000000e+04 0.0000e+00 1.0000e+00
  1000022 -1    0    0    0    0 -0.0000000000e+00 -0.0000000000e+00 -4.4721471353e+01 1.0000100000e+04 1.0000000000e+04 0.0000e+00 1.0000e+00
      -24  1    1    2    0    0 -9.4414891574e+03 +2.0585480222e+03 -1.8250913950e+03 9.8344633173e+03 7.9829010000e+01 0.0000e+00 -1.0000e+00
       24  1    1    2    0    0 +9.1183250747e+03 -1.9862998388e+03 +1.6747306107e+03 9.4815786927e+03 7.9829010000e+01 0.0000e+00 -1.0000e+00
       22  1    1    2    0    0 +4.8423975249e+02 -1.0756018913e+02 +1.5343049538e+02 5.1922851336e+02 0.0000000000e+00 0.0000e+00 1.0000e+00
       22  1    1    2    0    0 -1.6107566976e+02 +3.5312005695e+01 -3.0697110228e+00 1.6492947662e+02 0.0000000000e+00 0.0000e+00 -1.0000e+00
</event>
<event>
 6      1 +1.4834189e-01 1.00721400e+04 7.81653100e-03 6.93438800e-02
  1000022 -1    0    0    0    0 +0.0000000000e+00 +0.0000000000e+00 +4.4721471353e+01 1.0000100000e+04 1.0000000000e+04 0.0000e+00 -1.0000e+00
  1000022 -1    0    0    0    0 -0.0000000000e+00 -0.0000000000e+00 -4.4721471353e+01 1.0000100000e+04 1.0000000000e+04 0.0000e+00 -1.0000e+00
      -24  1    1    2    0    0 +5.2759610366e+03 +5.7834857661e+03 -5.8711172430e+03 9.7857479438e+03 7.9829010000e+01 0.0000e+00 -1.0000e+00
       24  1    1    2    0    0 -5.2730959382e+03 -5.8792923284e+03 +5.4339037440e+03 9.5867252816e+03 7.9829010000e+01 0.0000e+00 -1.0000e+00
       22  1    1    2    0    0 -8.7436733468e+01 +1.0464353119e+02 -4.0698657890e+01 1.4230893062e+02 0.0000000000e+00 0.0000e+00 1.0000e+00
       22  1    1    2    0    0 +8.4571635087e+01 -8.8369688994e+00 +4.7791215696e+02 4.8541784398e+02 0.0000000000e+00 0.0000e+00 -1.0000e+00
</event>
<event>
 6      1 +1.4834189e-01 1.04536400e+04 7.81653100e-03 6.91204100e-02
  1000022 -1    0    0    0    0 +0.0000000000e+00 +0.0000000000e+00 +4.4721471353e+01 1.0000100000e+04 1.0000000000e+04 0.0000e+00 -1.0000e+00
  1000022 -1    0    0    0    0 -0.0000000000e+00 -0.0000000000e+00 -4.4721471353e+01 1.0000100000e+04 1.0000000000e+04 0.0000e+00 -1.0000e+00
      -24  1    1    2    0    0 +6.9531259823e+03 +3.8594764832e+03 +3.8767547250e+01 7.9529488395e+03 7.9829010000e+01 0.0000e+00 1.0000e+00
       24  1    1    2    0    0 -8.3118424095e+03 -2.4278494468e+03 -2.8372491598e+02 8.6641819969e+03 7.9829010000e+01 0.0000e+00 1.0000e+00
       22  1    1    2    0    0 +2.1945914733e+03 -1.1572578399e+03 +3.1299737635e+02 2.5006888651e+03 0.0000000000e+00 0.0000e+00 1.0000e+00
       22  1    1    2    0    0 -8.3587504601e+02 -2.7436919646e+02 -6.8040007612e+01 8.8238029848e+02 0.0000000000e+00 0.0000e+00 -1.0000e+00
</event>
<event>
 6      1 +1.4834189e-01 1.00157200e+04 7.81653100e-03 6.93777700e-02
  1000022 -1    0    0    0    0 +0.0000000000e+00 +0.0000000000e+00 +4.4721471353e+01 1.0000100000e+04 1.0000000000e+04 0.0000e+00 -1.0000e+00
  1000022 -1    0    0    0    0 -0.0000000000e+00 -0.0000000000e+00 -4.4721471353e+01 1.0000100000e+04 1.0000000000e+04 0.0000e+00 -1.0000e+00
      -24  1    1    2    0    0 -5.4968680948e+03 +3.7076067974e+03 -7.4104943008e+03 9.9440286338e+03 7.9829010000e+01 0.0000e+00 -1.0000e+00
       24  1    1    2    0    0 +5.3039992736e+03 -3.3624386763e+03 +7.0562008550e+03 9.4464144163e+03 7.9829010000e+01 0.0000e+00 -1.0000e+00
       22  1    1    2    0    0 -2.4220927536e+01 +1.6973926779e+01 -2.7592472291e+01 4.0448881914e+01 0.0000000000e+00 0.0000e+00 1.0000e+00
       22  1    1    2    0    0 +2.1708974874e+02 -3.6214204792e+02 +3.8188591810e+02 5.6930806803e+02 0.0000000000e+00 0.0000e+00 1.0000e+00
</event>
<event>
 6      1 +1.4834189e-01 1.00058300e+04 7.81653100e-03 6.93837300e-02
  1000022 -1    0    0    0    0 +0.0000000000e+00 +0.0000000000e+00 +4.4721471353e+01 1.0000100000e+04 1.0000000000e+04 0.0000e+00 -1.0000e+00
  1000022 -1    0    0    0    0 -0.0000000000e+00 -0.0000000000e+00 -4.4721471353e+01 1.0000100000e+04 1.0000000000e+04 0.0000e+00 -1.0000e+00
      -24  1    1    2    0    0 +3.6300596292e+03 +4.7949421597e+03 -7.6398682882e+03 9.7233103087e+03 7.9829010000e+01 0.0000e+00 -1.0000e+00
       24  1    1    2    0    0 -3.7762408123e+03 -4.9367870419e+03 +7.8261834820e+03 9.9943674905e+03 7.9829010000e+01 0.0000e+00 -1.0000e+00
       22  1    1    2    0    0 +8.3946624313e+01 +5.9134660572e+01 -5.8956473273e+01 1.1840527672e+02 0.0000000000e+00 0.0000e+00 -1.0000e+00
       22  1    1    2    0    0 +6.2234558817e+01 +8.2710221605e+01 -1.2735872057e+02 1.6411692410e+02 0.0000000000e+00 0.0000e+00 -1.0000e+00
</event>
<event>
 6      1 +1.4834189e-01 1.00333000e+04 7.81653100e-03 6.93671900e-02
  1000022 -1    0    0    0    0 +0.0000000000e+00 +0.0000000000e+00 +4.4721471353e+01 1.0000100000e+04 1.0000000000e+04 0.0000e+00 -1.0000e+00
  1000022 -1    0    0    0    0 -0.0000000000e+00 -0.0000000000e+00 -4.4721471353e+01 1.0000100000e+04 1.0000000000e+04 0.0000e+00 -1.0000e+00
      -24  1    1    2    0    0 -6.6781750392e+03 +7.0474572710e+03 -2.2512432256e+03 9.9669024562e+03 7.9829010000e+01 0.0000e+00 -1.0000e+00
       24  1    1    2    0    0 +6.6215359667e+03 -6.8664531263e+03 +2.2934994650e+03 9.8111889983e+03 7.9829010000e+01 0.0000e+00 -1.0000e+00
       22  1    1    2    0    0 -8.0957105189e+00 -1.1289218498e+02 -5.7438640317e+01 1.2692274564e+02 0.0000000000e+00 0.0000e+00 -1.0000e+00
       22  1    1    2    0    0 +6.4734783017e+01 -6.8111959722e+01 +1.5182400930e+01 9.5185799821e+01 0.0000000000e+00 0.0000e+00 1.0000e+00
</event>
<event>
 6      1 +1.4834189e-01 1.04078600e+04 7.81653100e-03 6.91467200e-02
  1000022 -1    0    0    0    0 +0.0000000000e+00 +0.0000000000e+00 +4.4721471353e+01 1.0000100000e+04 1.0000000000e+04 0.0000e+00 1.0000e+00
  1000022 -1    0    0    0    0 -0.0000000000e+00 -0.0000000000e+00 -4.4721471353e+01 1.0000100000e+04 1.0000000000e+04 0.0000e+00 1.0000e+00
      -24  1    1    2    0    0 +1.3319971115e+02 -5.6626951752e+02 -1.3441986565e+02 6.0236591922e+02 7.9829010000e+01 0.0000e+00 1.0000e+00
       24  1    1    2    0    0 -4.9955629863e+03 +8.1784632574e+03 -4.0471166393e+02 9.5923446041e+03 7.9829010000e+01 0.0000e+00 1.0000e+00
       22  1    1    2    0    0 +2.0113615062e+02 +1.1652057319e+02 +7.4213176471e+02 7.7768396618e+02 0.0000000000e+00 0.0000e+00 -1.0000e+00
       22  1    1    2    0    0 +4.6612271245e+03 -7.7287143131e+03 -2.0300023513e+02 9.0278055105e+03 0.0000000000e+00 0.0000e+00 1.0000e+00
</event>
<event>
 6      1 +1.4834189e-01 1.00246100e+04 7.81653100e-03 6.93724200e-02
  1000022 -1    0    0    0    0 +0.0000000000e+00 +0.0000000000e+00 +4.4721471353e+01 1.0000100000e+04 1.0000000000e+04 0.0000e+00 -1.0000e+00
  1000022 -1    0    0    0    0 -0.0000000000e+00 -0.0000000000e+00 -4.4721471353e+01 1.0000100000e+04 1.0000000000e+04 0.0000e+00 -1.0000e+00
      -24  1    1    2    0    0 -6.2868612429e+03 -1.2711633726e+03 -2.5939469239e+03 6.9192061627e+03 7.9829010000e+01 0.0000e+00 1.0000e+00
       24  1    1    2    0    0 +9.0303186860e+03 +1.1759614845e+03 +3.8565523368e+03 9.8898387035e+03 7.9829010000e+01 0.0000e+00 1.0000e+00
       22  1    1    2    0    0 -2.8271159382e+03 +9.4230617764e+01 -1.2814245035e+03 3.1054005693e+03 0.0000000000e+00 0.0000e+00 1.0000e+00
       22  1    1    2    0    0 +8.3658495139e+01 +9.7127034048e-01 +1.8819090534e+01 8.5754564563e+01 0.0000000000e+00 0.0000e+00 -1.0000e+00
</event>
<event>
 6      1 +1.4834189e-01 1.00052800e+04 7.81653100e-03 6.93840700e-02
  1000022 -1    0    0    0    0 +0.0000000000e+00 +0.0000000000e+00 +4.4721471353e+01 1.0000100000e+04 1.0000000000e+04 0.0000e+00 1.0000e+00
  1000022 -1    0    0    0    0 -0.0000000000e+00 -0.0000000000e+00 -4.4721471353e+01 1.0000100000e+04 1.0000000000e+04 0.0000e+00 1.0000e+00
      -24  1    1    2    0    0 -2.6134232526e+03 -9.4681087341e+03 +1.0245774081e+03 9.8757883551e+03 7.9829010000e+01 0.0000e+00 1.0000e+00
       24  1    1    2    0    0 +2.6839469186e+03 +9.5697618213e+03 -1.0526964402e+03 9.9949214527e+03 7.9829010000e+01 0.0000e+00 1.0000e+00
       22  1    1    2    0    0 -6.5723093386e+01 -7.6911125166e+01 +2.3624675434e+01 1.0388922691e+02 0.0000000000e+00 0.0000e+00 -1.0000e+00
       22  1    1    2    0    0 -4.8005726475e+00 -2.4741962063e+01 +4.4943567395e+00 2.5600965352e+01 0.0000000000e+00 0.0000e+00 -1.0000e+00
</event>
<event>
 6      1 +1.4834189e-01 1.04144900e+04 7.81653100e-03 6.91429000e-02
  1000022 -1    0    0    0    0 +0.0000000000e+00 +0.0000000000e+00 +4.4721471353e+01 1.0000100000e+04 1.0000000000e+04 0.0000e+00 -1.0000e+00
  1000022 -1    0    0    0    0 -0.0000000000e+00 -0.0000000000e+00 -4.4721471353e+01 1.0000100000e+04 1.0000000000e+04 0.0000e+00 -1.0000e+00
      -24  1    1    2    0    0 +2.7580196984e+03 -5.2591124624e+03 -3.5272191135e+02 5.9494303901e+03 7.9829010000e+01 0.0000e+00 1.0000e+00
       24  1    1    2    0    0 +1.5486972422e+02 +2.3188453808e+02 +3.4649588928e+02 4.5187071448e+02 7.9829010000e+01 0.0000e+00 -1.0000e+00
       22  1    1    2    0    0 +3.4779743016e+03 -7.3467196010e+02 -2.8247081089e+03 4.5403770804e+03 0.0000000000e+00 0.0000e+00 1.0000e+00
       22  1    1    2    0    0 -6.3908637242e+03 +5.7618998845e+03 +2.8309341309e+03 9.0585218150e+03 0.0000000000e+00 0.0000e+00 1.0000e+00
</event>
<event>
 6      1 +1.4834189e-01 1.00555400e+04 7.81653100e-03 6.93538300e-02
  1000022 -1    0    0    0    0 +0.0000000000e+00 +0.0000000000e+00 +4.4721471353e+01 1.0000100000e+04 1.0000000000e+04 0.0000e+00 -1.0000e+00
  1000022 -1    0    0    0    0 -0.0000000000e+00 -0.0000000000e+00 -4.4721471353e+01 1.0000100000e+04 1.0000000000e+04 0.0000e+00 -1.0000e+00
      -24  1    1    2    0    0 -7.9146743120e+03 +1.7148492749e+03 +5.7712371143e+03 9.9446632925e+03 7.9829010000e+01 0.0000e+00 -1.0000e+00
       24  1    1    2    0    0 +7.5823660264e+03 -1.9134604236e+03 -5.6316328371e+03 9.6371814569e+03 7.9829010000e+01 0.0000e+00 -1.0000e+00
       22  1    1    2    0    0 +9.1347828937e+00 -4.4850886376e+00 -1.2363147398e+01 1.6012735312e+01 0.0000000000e+00 0.0000e+00 1.0000e+00
       22  1    1    2    0    0 +3.2317350268e+02 +2.0309623732e+02 -1.2724112985e+02 4.0234251524e+02 0.0000000000e+00 0.0000e+00 -1.0000e+00
</event>
<event>
 6      1 +1.4834189e-01 1.00045300e+04 7.81653100e-03 6.93845200e-02
  1000022 -1    0    0    0    0 +0.0000000000e+00 +0.0000000000e+00 +4.4721471353e+01 1.0000100000e+04 1.0000000000e+04 0.0000e+00 1.0000e+00
  1000022 -1    0    0    0    0 -0.0000000000e+00 -0.0000000000e+00 -4.4721471353e+01 1.0000100000e+04 1.0000000000e+04 0.0000e+00 1.0000e+00
      -24  1    1    2    0    0 -9.8421296247e+02 +9.8949727060e+03 -2.9712978030e+02 9.9485586285e+03 7.9829010000e+01 0.0000e+00 1.0000e+00
       24  1    1    2    0    0 +1.0197156733e+03 -9.8897897749e+03 +3.3438533238e+02 9.9481630499e+03 7.9829010000e+01 0.0000e+00 1.0000e+00
       22  1    1    2    0    0 -4.3256797898e+00 -4.5274526033e+01 -1.3737795384e+01 4.7510222428e+01 0.0000000000e+00 0.0000e+00 -1.0000e+00
       22  1    1    2    0    0 -3.1177031052e+01 +4.0091594936e+01 -2.3517756700e+01 5.5968099216e+01 0.0000000000e+00 0.0000e+00 1.0000e+00
</event>
<event>
 6      1 +1.4834189e-01 1.06149400e+04 7.81653100e-03 6.90287900e-02
  1000022 -1    0    0    0    0 +0.0000000000e+00 +0.0000000000e+00 +4.4721471353e+01 1.0000100000e+04 1.0000000000e+04 0.0000e+00 -1.0000e+00
  1000022 -1    0    0    0    0 -0.0000000000e+00 -0.0000000000e+00 -4.4721471353e+01 1.0000100000e+04 1.0000000000e+04 0.0000e+00 -1.0000e+00
      -24  1    1    2    0    0 +1.8694982950e+03 +4.7056436010e+02 -5.9816037943e+03 6.2850943760e+03 7.9829010000e+01 0.0000e+00 1.0000e+00
       24  1    1    2    0    0 -2.9462983850e+03 +2.9444446458e+03 +8.4098948560e+03 9.3852614564e+03 7.9829010000e+01 0.0000e+00 1.0000e+00
       22  1    1    2    0    0 -3.3238951400e+00 -2.1904042461e+01 -5.2692630880e+00 2.2772801508e+01 0.0000000000e+00 0.0000e+00 1.0000e+00
       22  1    1    2    0    0 +1.0801239852e+03 -3.3931049634e+03 -2.4230217986e+03 4.3070713661e+03 0.0000000000e+00 0.0000e+00 1.0000e+00
</event>
<event>
 6      1 +1.4834189e-01 1.00170200e+04 7.81653100e-03 6.93769900e-02
  1000022 -1    0    0    0    0 +0.0000000000e+00 +0.0000000000e+00 +4.4721471353e+01 1.0000100000e+04 1.0000000000e+04 0.0000e+00 -1.0000e+00
  1000022 -1    0    0    0    0 -0.0000000000e+00 -0.0000000000e+00 -4.4721471353e+01 1.0000100000e+04 1.0000000000e+04 0.0000e+00 -1.0000e+00
      -24  1    1    2    0    0 +7.1006915933e+03 +4.5076838202e+03 -5.3775979680e+03 9.9831842166e+03 7.9829010000e+01 0.0000e+00 1.0000e+00
       24  1    1    2    0    0 -6.2630172945e+03 -3.8441907559e+03 +4.5386864056e+03 8.6376637558e+03 7.9829010000e+01 0.0000e+00 1.0000e+00
       22  1    1    2    0    0 -5.4996926451e+02 -2.8630602856e+02 +4.5463484979e+02 7.6884990768e+02 0.0000000000e+00 0.0000e+00 1.0000e+00
       22  1    1    2    0    0 -2.8770503427e+02 -3.7718703573e+02 +3.8427671255e+02 6.1050211996e+02 0.0000000000e+00 0.0000e+00 1.0000e+00
</event>
<event>
 6      1 +1.4834189e-01 1.00050000e+04 7.81653100e-03 6.93842400e-02
  1000022 -1    0    0    0    0 +0.0000000000e+00 +0.0000000000e+00 +4.4721471353e+01 1.0000100000e+04 1.0000000000e+04 0.0000e+00 1.0000e+00
  1000022 -1    0    0    0    0 -0.0000000000e+00 -0.0000000000e+00 -4.4721471353e+01 1.0000100000e+04 1.0000000000e+04 0.0000e+00 1.0000e+00
      -24  1    1    2    0    0 +1.8317723702e+03 +9.4257236696e+03 -2.7745436751e+03 9.9952049498e+03 7.9829010000e+01 0.0000e+00 -1.0000e+00
       24  1    1    2    0    0 -1.8160377719e+03 -9.2701008178e+03 +2.7641845373e+03 9.8427562800e+03 7.9829010000e+01 0.0000e+00 -1.0000e+00
       22  1    1    2    0    0 -1.6573471364e+01 -7.7676592031e+01 +2.4283028280e+01 8.3054189329e+01 0.0000000000e+00 0.0000e+00 1.0000e+00
       22  1    1    2    0    0 +8.3887307554e-01 -7.7946259771e+01 -1.3923890437e+01 7.9184580855e+01 0.0000000000e+00 0.0000e+00 1.0000e+00
</event>
<event>
 6      1 +1.4834189e-01 1.02677400e+04 7.81653100e-03 6.92280800e-02
  1000022 -1    0    0    0    0 +0.0000000000e+00 +0.0000000000e+00 +4.4721471353e+01 1.0000100000e+04 1.0000000000e+04 0.0000e+00 -1.0000e+00
  1000022 -1    0    0    0    0 -0.0000000000e+00 -0.0000000000e+00 -4.4721471353e+01 1.0000100000e+04 1.0000000000e+04 0.0000e+00 -1.0000e+00
      -24  1    1    2    0    0 +3.4045426989e+02 +4.0385458632e+03 +8.4176246265e+03 9.3428335543e+03 7.9829010000e+01 0.0000e+00 1.0000e+00
       24  1    1    2    0    0 +3.7616136555e+02 -3.7213336023e+03 -8.9267246221e+03 9.6789775443e+03 7.9829010000e+01 0.0000e+00 1.0000e+00
       22  1    1    2    0    0 -4.0935407827e+01 +2.8260130301e+01 -1.9637818371e+01 5.3478841507e+01 0.0000000000e+00 0.0000e+00 1.0000e+00
       22  1    1    2    0    0 -6.7568022761e+02 -3.4547239121e+02 +5.2873781400e+02 9.2491005997e+02 0.0000000000e+00 0.0000e+00 1.0000e+00
</event>
<event>
 6      1 +1.4834189e-01 1.00123400e+04 7.81653100e-03 6.93798100e-02
  1000022 -1    0    0    0    0 +0.0000000000e+00 +0.0000000000e+00 +4.4721471353e+01 1.0000100000e+04 1.0000000000e+04 0.0000e+00 1.0000e+00
  1000022 -1    0    0    0    0 -0.0000000000e+00 -0.0000000000e+00 -4.4721471353e+01 1.0000100000e+04 1.0000000000e+04 0.0000e+00 1.0000e+00
      -24  1    1    2    0    0 +3.2871106571e+03 +9.3285404211e+03 -1.3871802958e+03 9.9878628697e+03 7.9829010000e+01 0.0000e+00 -1.0000e+00
       24  1    1    2    0    0 -8.9967930646e+02 -1.9720163731e+03 +1.4292394716e+02 2.1737229253e+03 7.9829010000e+01 0.0000e+00 -1.0000e+00
       22  1    1    2    0    0 -2.3679523417e+03 -7.3421798236e+03 +1.2355181774e+03 7.8128937035e+03 0.0000000000e+00 0.0000e+00 -1.0000e+00
       22  1    1    2    0    0 -1.9479008947e+01 -1.4344224390e+01 +8.7381712007e+00 2.5720501528e+01 0.0000000000e+00 0.0000e+00 -1.0000e+00
</event>
<event>
 6      1 +1.4834189e-01 1.02730200e+04 7.81653100e-03 6.92249900e-02
  1000022 -1    0    0    0    0 +0.0000000000e+00 +0.0000000000e+00 +4.4721471353e+01 1.0000100000e+04 1.0000000000e+04 0.0000e+00 -1.0000e+00
  1000022 -1    0    0    0    0 -0.0000000000e+00 -0.0000000000e+00 -4.4721471353e+01 1.0000100000e+04 1.0000000000e+04 0.0000e+00 -1.0000e+00
      -24  1    1    2    0    0 +8.7615612524e+02 +7.3708620362e+02 -9.0605402838e+02 1.4622763763e+03 7.9829010000e+01 0.0000e+00 -1.0000e+00
       24  1    1    2    0    0 -5.4206182815e+03 -7.8041362817e+03 -1.2080780566e+03 9.5788032091e+03 7.9829010000e+01 0.0000e+00 -1.0000e+00
       22  1    1    2    0    0 -7.9003899219e+01 -1.2477370432e+02 -1.4346497034e+01 1.4837761070e+02 0.0000000000e+00 0.0000e+00 1.0000e+00
       22  1    1    2    0    0 +4.6234660555e+03 +7.1918237824e+03 +2.1284785820e+03 8.8107428039e+03 0.0000000000e+00 0.0000e+00 -1.0000e+00
</event>
<event>
 6      1 +1.4834189e-01 1.01413900e+04 7.81653100e-03 6.93025800e-02
  1000022 -1    0    0    0    0 +0.0000000000e+00 +0.0000000000e+00 +4.4721471353e+01 1.0000100000e+04 1.0000000000e+04 0.0000e+00 -1.0000e+00
  1000022 -1    0    0    0    0 -0.0000000000e+00 -0.0000000000e+00 -4.4721471353e+01 1.0000100000e+04 1.0000000000e+04 0.0000e+00 -1.0000e+00
      -24  1    1    2    0    0 +2.9497967424e+03 -7.8235703035e+02 -9.3742378718e+03 9.8588078230e+03 7.9829010000e+01 0.0000e+00 -1.0000e+00
       24  1    1    2    0    0 -2.9608390346e+03 +4.9559598090e+02 +8.6403986930e+03 9.1474064855e+03 7.9829010000e+01 0.0000e+00 -1.0000e+00
       22  1    1    2    0    0 +2.0695555717e+02 +2.5601252887e+02 +1.2244687069e+02 3.5123532528e+02 0.0000000000e+00 0.0000e+00 1.0000e+00
       22  1    1    2    0    0 -1.9591326501e+02 +3.0748520583e+01 +6.1139230803e+02 6.4275036620e+02 0.0000000000e+00 0.0000e+00 1.0000e+00
</event>
<event>
 6      1 +1.4834189e-01 1.00631200e+04 7.81653100e-03 6.93492800e-02
  1000022 -1    0    0    0    0 +0.0000000000e+00 +0.0000000000e+00 +4.4721471353e+01 1.0000100000e+04 1.0000000000e+04 0.0000e+00 -1.0000e+00
  1000022 -1    0    0    0    0 -0.0000000000e+00 -0.0000000000e+00 -4.4721471353e+01 1.0000100000e+04 1.0000000000e+04 0.0000e+00 -1.0000e+00
      -24  1    1    2    0    0 +8.4858284449e+03 +6.8749650263e+02 -7.1566235792e+02 8.5440319006e+03 7.9829010000e+01 0.0000e+00 1.0000e+00
       24  1    1    2    0    0 -8.7566340868e+03 -2.6688997034e+02 +4.8679067386e+02 8.7745774039e+03 7.9829010000e+01 0.0000e+00 1.0000e+00
       22  1    1    2    0    0 +1.4221445579e+03 -5.2347899520e+02 +1.0541793762e+02 1.5190912888e+03 0.0000000000e+00 0.0000e+00 1.0000e+00
       22  1    1    2    0    0 -1.1513389160e+03 +1.0287246291e+02 +1.2345374643e+02 1.1624994067e+03 0.0000000000e+00 0.0000e+00 -1.0000e+00
</event>
<event>
 6      1 +1.4834189e-01 1.00986800e+04 7.81653100e-03 6.93280100e-02
  1000022 -1    0    0    0    0 +0.0000000000e+00 +0.0000000000e+00 +4.4721471353e+01 1.0000100000e+04 1.0000000000e+04 0.0000e+00 1.0000e+00
  1000022 -1    0    0    0    0 -0.0000000000e+00 -0.0000000000e+00 -4.4721471353e+01 1.0000100000e+04 1.0000000000e+04 0.0000e+00 1.0000e+00
      -24  1    1    2    0    0 +3.8688549166e+03 -1.3979663436e+03 +5.0548427885e+02 4.1453872305e+03 7.9829010000e+01 0.0000e+00 -1.0000e+00
       24  1    1    2    0    0 -5.9332275609e+03 +1.3725320942e+03 +2.0309045258e+02 6.0938208082e+03 7.9829010000e+01 0.0000e+00 -1.0000e+00
       22  1    1    2    0    0 +5.3417235315e+03 -2.1436586508e+03 +6.1431636151e+01 5.7561320819e+03 0.0000000000e+00 0.0000e+00 -1.0000e+00
       22  1    1    2    0    0 -3.2773508872e+03 +2.1690929002e+03 -7.7000636758e+02 4.0048598794e+03 0.0000000000e+00 0.0000e+00 1.0000e+00
</event>
<event>
 6      1 +1.4834189e-01 1.00881700e+04 7.81653100e-03 6.93342900e-02
  1000022 -1    0    0    0    0 +0.0000000000e+00 +0.0000000000e+00 +4.4721471353e+01 1.0000100000e+04 1.0000000000e+04 0.0000e+00 -1.0000e+00
  1000022 -1    0    0    0    0 -0.0000000000e+00 -0.0000000000e+00 -4.4721471353e+01 1.0000100000e+04 1.0000000000e+04 0.0000e+00 -1.0000e+00
      -24  1    1    2    0    0 -5.6333552985e+02 -6.6783083090e+02 -8.5728194069e+02 1.2266417303e+03 7.9829010000e+01 0.0000e+00 1.0000e+00
       24  1    1    2    0    0 +1.8647584112e+03 +8.4274449985e+03 +4.1913488892e+03 9.5954641012e+03 7.9829010000e+01 0.0000e+00 1.0000e+00
       22  1    1    2    0    0 +4.5365376333e+01 +2.8227454565e+02 +1.3592956267e+02 3.1656560536e+02 0.0000000000e+00 0.0000e+00 1.0000e+00
       22  1    1    2    0    0 -1.3467882577e+03 -8.0418887133e+03 -3.4699965112e+03 8.8615285631e+03 0.0000000000e+00 0.0000e+00 1.0000e+00
</event>
<event>
 6      1 +1.4834189e-01 1.00757700e+04 7.81653100e-03 6.93417000e-02
  1000022 -1    0    0    0    0 +0.0000000000e+00 +0.0000000000e+00 +4.4721471353e+01 1.0000100000e+04 1.0000000000e+04 0.0000e+00 1.0000e+00
  1000022 -1    0    0    0    0 -0.0000000000e+00 -0.0000000000e+00 -4.4721471353e+01 1.0000100000e+04 1.0000000000e+04 0.0000e+00 1.0000e+00
      -24  1    1    2    0    0 +5.1719386009e+02 -3.1197022199e+02 +4.4345455758e+02 7.5355127483e+02 7.9829010000e+01 0.0000e+00 0.0000e+00
       24  1    1    2    0    0 -7.8225601710e+03 +4.4310180650e+03 -4.2025566979e+03 9.9244256353e+03 7.9829010000e+01 0.0000e+00 -1.0000e+00
       22  1    1    2    0    0 +1.1832312991e+03 -2.5120642991e+02 +1.1397405696e+02 1.2149613423e+03 0.0000000000e+00 0.0000e+00 1.0000e+00
       22  1    1    2    0    0 +6.1221350118e+03 -3.8678414131e+03 +3.6451280834e+03 8.1072617476e+03 0.0000000000e+00 0.0000e+00 -1.0000e+00
</event>
<event>
 6      1 +1.4834189e-01 1.00002600e+04 7.81653100e-03 6.93870900e-02
  1000022 -1    0    0    0    0 +0.0000000000e+00 +0.0000000000e+00 +4.4721471353e+01 1.0000100000e+04 1.0000000000e+04 0.0000e+00 1.0000e+00
  1000022 -1    0    0    0    0 -0.0000000000e+00 -0.0000000000e+00 -4.4721471353e+01 1.0000100000e+04 1.0000000000e+04 0.0000e+00 1.0000e+00
      -24  1    1    2    0    0 +1.0589874931e+03 -8.3472846963e+03 +5.3262453673e+03 9.9586082710e+03 7.9829010000e+01 0.0000e+00 -1.0000e+00
       24  1    1    2    0    0 -1.0602462320e+03 +8.2581849507e+03 -5.2650207317e+03 9.8513225878e+03 7.9829010000e+01 0.0000e+00 -1.0000e+00
       22  1    1    2    0    0 -5.7781492079e+00 +1.2250442220e+02 -8.4516718011e+01 1.4894225757e+02 0.0000000000e+00 0.0000e+00 -1.0000e+00
       22  1    1    2    0    0 +7.0368881130e+00 -3.3404676610e+01 +2.3292082383e+01 4.1326883689e+01 0.0000000000e+00 0.0000e+00 -1.0000e+00
</event>
<event>
 6      1 +1.4834189e-01 1.00004100e+04 7.81653100e-03 6.93870100e-02
  1000022 -1    0    0    0    0 +0.0000000000e+00 +0.0000000000e+00 +4.4721471353e+01 1.0000100000e+04 1.0000000000e+04 0.0000e+00 -1.0000e+00
  1000022 -1    0    0    0    0 -0.0000000000e+00 -0.0000000000e+00 -4.4721471353e+01 1.0000100000e+04 1.0000000000e+04 0.0000e+00 -1.0000e+00
      -24  1    1    2    0    0 -4.0775422314e+03 +9.0444658387e+03 +7.9471591160e+02 9.9532235486e+03 7.9829010000e+01 0.0000e+00 1.0000e+00
       24  1    1    2    0    0 +2.1667594375e+03 -4.6971934333e+03 -4.2227487508e+02 5.1906802397e+03 7.9829010000e+01 0.0000e+00 1.0000e+00
       22  1    1    2    0    0 -1.9835975634e+01 +4.2118980352e+01 +9.9207824955e-01 4.6566711871e+01 0.0000000000e+00 0.0000e+00 -1.0000e+00
       22  1    1    2    0    0 +1.9306187695e+03 -4.3893913858e+03 -3.7343311477e+02 4.8097294999e+03 0.0000000000e+00 0.0000e+00 1.0000e+00
</event>
<event>
 6      1 +1.4834189e-01 1.00008200e+04 7.81653100e-03 6.93867600e-02
  1000022 -1    0    0    0    0 +0.0000000000e+00 +0.0000000000e+00 +4.4721471353e+01 1.0000100000e+04 1.0000000000e+04 0.0000e+00 1.0000e+00
  1000022 -1    0    0    0    0 -0.0000000000e+00 -0.0000000000e+00 -4.4721471353e+01 1.0000100000e+04 1.0000000000e+04 0.0000e+00 1.0000e+00
      -24  1    1    2    0    0 +1.5386464364e+03 -6.7796941589e+03 +4.3398604824e+03 8.1958799052e+03 7.9829010000e+01 0.0000e+00 -1.0000e+00
       24  1    1    2    0    0 -1.9094913596e+03 +8.2830256692e+03 -5.2210481300e+03 9.9759905641e+03 7.9829010000e+01 0.0000e+00 -1.0000e+00
       22  1    1    2    0    0 -5.1688334208e+00 +2.0179589140e+01 -1.0632371423e+01 2.3387603102e+01 0.0000000000e+00 0.0000e+00 1.0000e+00
       22  1    1    2    0    0 +3.7601375662e+02 -1.5235110995e+03 +8.9182001906e+02 1.8049419275e+03 0.0000000000e+00 0.0000e+00 -1.0000e+00
</event>
<event>
 6      1 +1.4834189e-01 1.03080100e+04 7.81653100e-03 6.92045600e-02
  1000022 -1    0    0    0    0 +0.0000000000e+00 +0.0000000000e+00 +4.4721471353e+01 1.0000100000e+04 1.0000000000e+04 0.0000e+00 -1.0000e+00
  1000022 -1    0    0    0    0 -0.0000000000e+00 -0.0000000000e+00 -4.4721471353e+01 1.0000100000e+04 1.0000000000e+04 0.0000e+00 -1.0000e+00
      -24  1    1    2    0    0 +2.0657113708e+03 +1.1379143296e+03 -3.9388875565e+02 2.3923907522e+03 7.9829010000e+01 0.0000e+00 -1.0000e+00
       24  1    1    2    0    0 -6.1458721473e+03 -7.4171853938e+03 -1.0704197441e+03 9.6921903982e+03 7.9829010000e+01 0.0000e+00 -1.0000e+00
       22  1    1    2    0    0 +7.6226696227e+02 +3.3395189521e+02 -2.9597652577e+02 8.8327622740e+02 0.0000000000e+00 0.0000e+00 -1.0000e+00
       22  1    1    2    0    0 +3.3178938142e+03 +5.9453191690e+03 +1.7602850255e+03 7.0323426221e+03 0.0000000000e+00 0.0000e+00 -1.0000e+00
</event>
<event>
 6      1 +1.4834189e-01 1.00059900e+04 7.81653100e-03 6.93836400e-02
  1000022 -1    0    0    0    0 +0.0000000000e+00 +0.0000000000e+00 +4.4721471353e+01 1.0000100000e+04 1.0000000000e+04 0.0000e+00 1.0000e+00
  1000022 -1    0    0    0    0 -0.0000000000e+00 -0.0000000000e+00 -4.4721471353e+01 1.0000100000e+04 1.0000000000e+04 0.0000e+00 1.0000e+00
      -24  1    1    2    0    0 +6.0257740089e+03 +5.2808367975e+03 -5.4232985381e+03 9.6755221767e+03 7.9829010000e+01 0.0000e+00 -1.0000e+00
       24  1    1    2    0    0 -4.8765055120e+02 -3.4438666259e+02 +3.1235042792e+02 6.7848411486e+02 7.9829010000e+01 0.0000e+00 0.0000e+00
       22  1    1    2    0    0 +2.0234596938e+02 +1.6797934403e+02 -1.8000346573e+02 3.1868824739e+02 0.0000000000e+00 0.0000e+00 -1.0000e+00
       22  1    1    2    0    0 -5.7404694271e+03 -5.1044294789e+03 +5.2909515759e+03 9.3275054611e+03 0.0000000000e+00 0.0000e+00 -1.0000e+00
</event>
<event>
 6      1 +1.4834189e-01 1.00037400e+04 7.81653100e-03 6.93850000e-02
  1000022 -1    0    0    0    0 +0.0000000000e+00 +0.0000000000e+00 +4.4721471353e+01 1.0000100000e+04 1.0000000000e+04 0.0000e+00 -1.0000e+00
  1000022 -1    0    0    0    0 -0.0000000000e+00 -0.0000000000e+00 -4.4721471353e+01 1.0000100000e+04 1.0000000000e+04 0.0000e+00 -1.0000e+00
      -24  1    1    2    0    0 +9.8012336921e+03 -3.2774043398e+02 +1.7959793763e+03 9.9701309054e+03 7.9829010000e+01 0.0000e+00 1.0000e+00
       24  1    1    2    0    0 -4.7597953822e+03 +1.9670311695e+02 -6.8653995793e+02 4.8137359692e+03 7.9829010000e+01 0.0000e+00 1.0000e+00
       22  1    1    2    0    0 -5.0674031427e+03 +1.3242319268e+02 -1.1135716224e+03 5.1900050357e+03 0.0000000000e+00 0.0000e+00 1.0000e+00
       22  1    1    2    0    0 +2.5964832810e+01 -1.3858756512e+00 +4.1322040196e+00 2.6328089642e+01 0.0000000000e+00 0.0000e+00 1.0000e+00
</event>
<event>
 6      1 +1.4834189e-01 1.00852900e+04 7.81653100e-03 6.93360100e-02
  1000022 -1    0    0    0    0 +0.0000000000e+00 +0.0000000000e+00 +4.4721471353e+01 1.0000100000e+04 1.0000000000e+04 0.0000e+00 1.0000e+00
  1000022 -1    0    0    0    0 -0.0000000000e+00 -0.0000000000e+00 -4.4721471353e+01 1.0000100000e+04 1.0000000000e+04 0.0000e+00 1.0000e+00
      -24  1    1    2    0    0 +8.1701633079e+03 +3.0242486333e+02 +5.0047299286e+03 9.5862778806e+03 7.9829010000e+01 0.0000e+00 -1.0000e+00
       24  1    1    2    0    0 -8.5189567907e+03 -2.9551238550e+02 -5.0635003205e+03 9.9149059773e+03 7.9829010000e+01 0.0000e+00 -1.0000e+00
       22  1    1    2    0    0 +1.7074086498e+01 -3.5392864340e+01 +1.4897701763e+02 1.5407248637e+02 0.0000000000e+00 0.0000e+00 -1.0000e+00
       22  1    1    2    0    0 +3.3171939630e+02 +2.8480386514e+01 -9.0206625747e+01 3.4494365573e+02 0.0000000000e+00 0.0000e+00 -1.0000e+00
</event>
<event>
 6      1 +1.4834189e-01 1.00222400e+04 7.81653100e-03 6.93738400e-02
  1000022 -1    0    0    0    0 +0.0000000000e+00 +0.0000000000e+00 +4.4721471353e+01 1.0000100000e+04 1.0000000000e+04 0.0000e+00 -1.0000e+00
  1000022 -1    0    0    0    0 -0.0000000000e+00 -0.0000000000e+00 -4.4721471353e+01 1.0000100000e+04 1.0000000000e+04 0.0000e+00 -1.0000e+00
      -24  1    1    2    0    0 -8.8089015995e+03 +3.8850565013e+03 +2.6197035120e+03 9.9779572343e+03 7.9829010000e+01 0.0000e+00 1.0000e+00
       24  1    1    2    0    0 +3.0186471543e+02 -1.3376124032e+02 -1.3268271930e+02 3.6468034040e+02 7.9829010000e+01 0.0000e+00 0.0000e+00
       22  1    1    2    0    0 +7.1739641978e+01 -1.3250283446e+02 -1.3136352971e+01 1.5124860707e+02 0.0000000000e+00 0.0000e+00 1.0000e+00
       22  1    1    2    0    0 +8.4352972421e+03 -3.6187924265e+03 -2.4738844398e+03 9.5063138182e+03 0.0000000000e+00 0.0000e+00 1.0000e+00
</event>
<event>
 6      1 +1.4834189e-01 1.00033200e+04 7.81653100e-03 6.93852500e-02
  1000022 -1    0    0    0    0 +0.0000000000e+00 +0.0000000000e+00 +4.4721471353e+01 1.0000100000e+04 1.0000000000e+04 0.0000e+00 -1.0000e+00
  1000022 -1    0    0    0    0 -0.0000000000e+00 -0.0000000000e+00 -4.4721471353e+01 1.0000100000e+04 1.0000000000e+04 0.0000e+00 -1.0000e+00
      -24  1    1    2    0    0 -6.8143562741e+02 +9.9239982602e+03 +8.6645076372e+02 9.9853495472e+03 7.9829010000e+01 0.0000e+00 -1.0000e+00
       24  1    1    2    0    0 +7.0770229658e+02 -8.8679858086e+03 -7.2139698068e+02 8.9257381272e+03 7.9829010000e+01 0.0000e+00 -1.0000e+00
       22  1    1    2    0    0 -2.4955360923e+01 -1.0674648938e+03 -1.4520139477e+02 1.0775841102e+03 0.0000000000e+00 0.0000e+00 -1.0000e+00
       22  1    1    2    0    0 -1.3113082438e+00 +1.1452442143e+01 +1.4761173754e-01 1.1528215368e+01 0.0000000000e+00 0.0000e+00 1.0000e+00
</event>
<event>
 6      1 +1.4834189e-01 1.00085100e+04 7.81653100e-03 6.93821200e-02
  1000022 -1    0    0    0    0 +0.0000000000e+00 +0.0000000000e+00 +4.4721471353e+01 1.0000100000e+04 1.0000000000e+04 0.0000e+00 -1.0000e+00
  1000022 -1    0    0    0    0 -0.0000000000e+00 -0.0000000000e+00 -4.4721471353e+01 1.0000100000e+04 1.0000000000e+04 0.0000e+00 -1.0000e+00
      -24  1    1    2    0    0 +1.6584282275e+03 -9.7606850868e+03 +1.3439221676e+03 9.9916893974e+03 7.9829010000e+01 0.0000e+00 1.0000e+00
       24  1    1    2    0    0 -1.5542192462e+03 +9.0823298691e+03 -1.2889743418e+03 9.3044151262e+03 7.9829010000e+01 0.0000e+00 1.0000e+00
       22  1    1    2    0    0 -5.2864244573e+01 +5.3677961836e+02 +1.1476651849e+01 5.3949856402e+02 0.0000000000e+00 0.0000e+00 -1.0000e+00
       22  1    1    2    0    0 -5.1344736735e+01 +1.4157559942e+02 -6.6424477722e+01 1.6459691243e+02 0.0000000000e+00 0.0000e+00 1.0000e+00
</event>
<event>
 6      1 +1.4834189e-01 1.00005400e+04 7.81653100e-03 6.93869300e-02
  1000022 -1    0    0    0    0 +0.0000000000e+00 +0.0000000000e+00 +4.4721471353e+01 1.0000100000e+04 1.0000000000e+04 0.0000e+00 -1.0000e+00
  1000022 -1    0    0    0    0 -0.0000000000e+00 -0.0000000000e+00 -4.4721471353e+01 1.0000100000e+04 1.0000000000e+04 0.0000e+00 -1.0000e+00
      -24  1    1    2    0    0 -7.1476698741e+03 +3.4948628086e+03 -5.9359245222e+03 9.9269745282e+03 7.9829010000e+01 0.0000e+00 1.0000e+00
       24  1    1    2    0    0 +6.3223017141e+03 -3.1389146839e+03 +5.2799756027e+03 8.8152594626e+03 7.9829010000e+01 0.0000e+00 1.0000e+00
       22  1    1    2    0    0 -5.4783675598e+01 +1.8668235881e+01 -4.3969933191e+01 7.2684999606e+01 0.0000000000e+00 0.0000e+00 1.0000e+00
       22  1    1    2    0    0 +8.8015183561e+02 -3.7461636055e+02 +6.9991885267e+02 1.1852810096e+03 0.0000000000e+00 0.0000e+00 -1.0000e+00
</event>
<event>
 6      1 +1.4834189e-01 1.00860400e+04 7.81653100e-03 6.93355600e-02
  1000022 -1    0    0    0    0 +0.0000000000e+00 +0.0000000000e+00 +4.4721471353e+01 1.0000100000e+04 1.0000000000e+04 0.0000e+00 1.0000e+00
  1000022 -1    0    0    0    0 -0.0000000000e+00 -0.0000000000e+00 -4.4721471353e+01 1.0000100000e+04 1.0000000000e+04 0.0000e+00 1.0000e+00
      -24  1    1    2    0    0 +1.2452596238e+02 -4.9376730424e+02 -6.1061586719e+02 7.9908527339e+02 7.9829010000e+01 0.0000e+00 -1.0000e+00
       24  1    1    2    0    0 -6.7907975541e+03 +5.1552430145e+03 +5.0589209208e+03 9.9141573275e+03 7.9829010000e+01 0.0000e+00 1.0000e+00
       22  1    1    2    0    0 +5.2139814497e+00 -2.7377046138e+01 -4.9725746722e+01 5.7002966106e+01 0.0000000000e+00 0.0000e+00 1.0000e+00
       22  1    1    2    0    0 +6.6610576103e+03 -4.6340986642e+03 -4.3985793069e+03 9.2299544330e+03 0.0000000000e+00 0.0000e+00 1.0000e+00
</event>
<event>
 6      1 +1.4834189e-01 1.00238800e+04 7.81653100e-03 6.93728500e-02
  1000022 -1    0    0    0    0 +0.0000000000e+00 +0.0000000000e+00 +4.4721471353e+01 1.0000100000e+04 1.0000000000e+04 0.0000e+00 -1.0000e+00
  1000022 -1    0    0    0    0 -0.0000000000e+00 -0.0000000000e+00 -4.4721471353e+01 1.0000100000e+04 1.0000000000e+04 0.0000e+00 -1.0000e+00
      -24  1    1    2    0    0 -8.6881819743e+03 +4.6530357050e+03 -1.0815337386e+03 9.9152072691e+03 7.9829010000e+01 0.0000e+00 1.0000e+00
       24  1    1    2    0    0 +8.2045916009e+03 -4.4176319358e+03 +9.4379190722e+02 9.3663179047e+03 7.9829010000e+01 0.0000e+00 1.0000e+00
       22  1    1    2    0    0 +5.4192451964e+02 -2.7460253321e+02 +5.4848394442e+01 6.0999760869e+02 0.0000000000e+00 0.0000e+00 1.0000e+00
       22  1    1    2    0    0 -5.8334146245e+01 +3.9198764035e+01 +8.2893436928e+01 1.0867721751e+02 0.0000000000e+00 0.0000e+00 -1.0000e+00
</event>
<event>
 6      1 +1.4834189e-01 1.01092400e+04 7.81653100e-03 6.93217100e-02
  1000022 -1    0    0    0    0 +0.0000000000e+00 +0.0000000000e+00 +4.4721471353e+01 1.0000100000e+04 1.0000000000e+04 0.0000e+00 1.0000e+00
  1000022 -1    0    0    0    0 -0.0000000000e+00 -0.0000000000e+00 -4.4721471353e+01 1.0000100000e+04 1.0000000000e+04 0.0000e+00 1.0000e+00
      -24  1    1    2    0    0 -6.9018347965e+03 -4.2777671301e+03 +5.6471274430e+03 9.8909572947e+03 7.9829010000e+01 0.0000e+00 1.0000e+00
       24  1    1    2    0    0 +8.6195765491e+02 +1.4417998979e+02 -2.4413843866e+01 8.7791091515e+02 7.9829010000e+01 0.0000e+00 1.0000e+00
       22  1    1    2    0    0 +1.1534931057e+01 +1.4069062745e+00 -3.1458454041e+00 1.2038702715e+01 0.0000000000e+00 0.0000e+00 1.0000e+00
       22  1    1    2    0    0 +6.0283422105e+03 +4.1321802340e+03 -5.6195677537e+03 9.2192930874e+03 0.0000000000e+00 0.0000e+00 1.0000e+00
</event>
<event>
 6      1 +1.4834189e-01 1.00843500e+04 7.81653100e-03 6.93365700e-02
  1000022 -1    0    0    0    0 +0.0000000000e+00 +0.0000000000e+00 +4.4721471353e+01 1.0000100000e+04 1.0000000000e+04 0.0000e+00 -1.0000e+00
  1000022 -1    0    0    0    0 -0.0000000000e+00 -0.0000000000e+00 -4.4721471353e+01 1.0000100000e+04 1.0000000000e+04 0.0000e+00 -1.0000e+00
      -24  1    1    2    0    0 -4.6751590600e+03 -2.6717473386e+03 +8.0117793854e+03 9.6535137473e+03 7.9829010000e+01 0.0000e+00 1.0000e+00
       24  1    1    2    0    0 +4.4514419241e+03 +2.3857189325e+03 -8.0600645118e+03 9.5119925691e+03 7.9829010000e+01 0.0000e+00 1.0000e+00
       22  1    1    2    0    0 +1.7018302681e+02 +1.2048952264e+02 -3.4586149639e+02 4.0385661114e+02 0.0000000000e+00 0.0000e+00 -1.0000e+00
       22  1    1    2    0    0 +5.3534109019e+01 +1.6553888345e+02 +3.9414662282e+02 4.3083707250e+02 0.0000000000e+00 0.0000e+00 1.0000e+00
</event>
<event>
 6      1 +1.4834189e-01 1.02268500e+04 7.81653100e-03 6.92520800e-02
  1000022 -1    0    0    0    0 +0.0000000000e+00 +0.0000000000e+00 +4.4721471353e+01 1.0000100000e+04 1.0000000000e+04 0.0000e+00 -1.0000e+00
  1000022 -1    0    0    0    0 -0.0000000000e+00 -0.0000000000e+00 -4.4721471353e+01 1.0000100000e+04 1.0000000000e+04 0.0000e+00 -1.0000e+00
      -24  1    1    2    0    0 +2.0630126712e+03 -3.1087774350e+03 +7.8929499510e+03 8.7307244844e+03 7.9829010000e+01 0.0000e+00 1.0000e+00
       24  1    1    2    0    0 -2.0118014794e+03 +3.8468627566e+03 -8.7559332270e+03 9.7733534473e+03 7.9829010000e+01 0.0000e+00 1.0000e+00
       22  1    1    2    0    0 +2.1439488235e+02 -3.7425825533e+02 +9.4451836284e+02 1.0383397060e+03 0.0000000000e+00 0.0000e+00 -1.0000e+00
       22  1    1    2    0    0 -2.6560607419e+02 -3.6382706633e+02 -8.1535086918e+01 4.5778236231e+02 0.0000000000e+00 0.0000e+00 1.0000e+00
</event>
<event>
 6      1 +1.4834189e-01 1.00366300e+04 7.81653100e-03 6.93651800e-02
  1000022 -1    0    0    0    0 +0.0000000000e+00 +0.0000000000e+00 +4.4721471353e+01 1.0000100000e+04 1.0000000000e+04 0.0000e+00 -1.0000e+00
  1000022 -1    0    0    0    0 -0.0000000000e+00 -0.0000000000e+00 -4.4721471353e+01 1.0000100000e+04 1.0000000000e+04 0.0000e+00 -1.0000e+00
      -24  1    1    2    0    0 -2.5818053151e+03 +3.3921656610e+03 -2.4838874933e+02 4.2708987577e+03 7.9829010000e+01 0.0000e+00 1.0000e+00
       24  1    1    2    0    0 +5.2063388956e+03 -8.4652357409e+03 -4.0794686347e+02 9.9468072344e+03 7.9829010000e+01 0.0000e+00 1.0000e+00
       22  1    1    2    0    0 +8.8706347233e+00 -1.4156504011e+01 +1.3946788426e+00 1.6764244548e+01 0.0000000000e+00 0.0000e+00 1.0000e+00
       22  1    1    2    0    0 -2.6334042151e+03 +5.0872265839e+03 +6.5494093396e+02 5.7657297633e+03 0.0000000000e+00 0.0000e+00 1.0000e+00
</event>
<event>
 6      1 +1.4834189e-01 1.00457000e+04 7.81653100e-03 6.93597300e-02
  1000022 -1    0    0    0    0 +0.0000000000e+00 +0.0000000000e+00 +4.4721471353e+01 1.0000100000e+04 1.0000000000e+04 0.0000e+00 -1.0000e+00
  1000022 -1    0    0    0    0 -0.0000000000e+00 -0.0000000000e+00 -4.4721471353e+01 1.0000100000e+04 1.0000000000e+04 0.0000e+00 -1.0000e+00
      -24  1    1    2    0    0 +9.2209630742e+03 -2.6731528084e+03 -2.4230893926e+03 9.9020018597e+03 7.9829010000e+01 0.0000e+00 -1.0000e+00
       24  1    1    2    0    0 -9.0084131661e+03 +2.4846588437e+03 +2.2302527835e+03 9.6075718831e+03 7.9829010000e+01 0.0000e+00 -1.0000e+00
       22  1    1    2    0    0 +9.4444497685e+01 +7.1651680997e+01 +8.1220745154e+01 1.4370294352e+02 0.0000000000e+00 0.0000e+00 1.0000e+00
       22  1    1    2    0    0 -3.0699440579e+02 +1.1684228378e+02 +1.1161586402e+02 3.4692331367e+02 0.0000000000e+00 0.0000e+00 1.0000e+00
</event>
<event>
 6      1 +1.4834189e-01 1.01417400e+04 7.81653100e-03 6.93023800e-02
  1000022 -1    0    0    0    0 +0.0000000000e+00 +0.0000000000e+00 +4.4721471353e+01 1.0000100000e+04 1.0000000000e+04 0.0000e+00 -1.0000e+00
  1000022 -1    0    0    0    0 -0.0000000000e+00 -0.0000000000e+00 -4.4721471353e+01 1.0000100000e+04 1.0000000000e+04 0.0000e+00 -1.0000e+00
      -24  1    1    2    0    0 -2.7507615443e+03 +7.0443902362e+03 +3.2883623404e+03 8.2468068018e+03 7.9829010000e+01 0.0000e+00 -1.0000e+00
       24  1    1    2    0    0 +2.5197911513e+03 -8.1311327113e+03 -4.6571420494e+03 9.7036081616e+03 7.9829010000e+01 0.0000e+00 -1.0000e+00
       22  1    1    2    0    0 +4.0955999360e+01 -1.3210526915e+02 -6.9645960599e+01 1.5485398235e+02 0.0000000000e+00 0.0000e+00 -1.0000e+00
       22  1    1    2    0    0 +1.9001439365e+02 +1.2188477442e+03 +1.4384256696e+03 1.8949310542e+03 0.0000000000e+00 0.0000e+00 1.0000e+00
</event>
<event>
 6      1 +1.4834189e-01 1.09429400e+04 7.81653100e-03 6.88474400e-02
  1000022 -1    0    0    0    0 +0.0000000000e+00 +0.0000000000e+00 +4.4721471353e+01 1.0000100000e+04 1.0000000000e+04 0.0000e+00 1.0000e+00
  1000022 -1    0    0    0    0 -0.0000000000e+00 -0.0000000000e+00 -4.4721471353e+01 1.0000100000e+04 1.0000000000e+04 0.0000e+00 1.0000e+00
      -24  1    1    2    0    0 +4.9621171809e+02 +6.6216922730e+03 +1.1454391764e+03 6.7388009472e+03 7.9829010000e+01 0.0000e+00 -1.0000e+00
       24  1    1    2    0    0 -4.1492253360e+03 -5.5637862759e+03 +3.0681936219e+02 6.9478269556e+03 7.9829010000e+01 0.0000e+00 -1.0000e+00
       22  1    1    2    0    0 +2.5231923793e+03 -2.9843194916e+03 -8.2959702190e+02 3.9951087382e+03 0.0000000000e+00 0.0000e+00 -1.0000e+00
       22  1    1    2    0    0 +1.1298212386e+03 +1.9264134945e+03 -6.2266151673e+02 2.3184633591e+03 0.0000000000e+00 0.0000e+00 -1.0000e+00
</event>
<event>
 6      1 +1.4834189e-01 1.00123400e+04 7.81653100e-03 6.93798100e-02
  1000022 -1    0    0    0    0 +0.0000000000e+00 +0.0000000000e+00 +4.4721471353e+01 1.0000100000e+04 1.0000000000e+04 0.0000e+00 1.0000e+00
  1000022 -1    0    0    0    0 -0.0000000000e+00 -0.0000000000e+00 -4.4721471353e+01 1.0000100000e+04 1.0000000000e+04 0.0000e+00 1.0000e+00
      -24  1    1    2    0    0 +2.0716921230e+03 -4.5596952902e+03 -7.6453517730e+03 9.1400495511e+03 7.9829010000e+01 0.0000e+00 -1.0000e+00
       24  1    1    2    0    0 -2.2301211888e+03 +4.8228829440e+03 +8.4567931844e+03 9.9878608342e+03 7.9829010000e+01 0.0000e+00 -1.0000e+00
       22  1    1    2    0    0 +4.1377564799e+01 -8.0431187648e+01 -1.4029045926e+02 1.6692121427e+02 0.0000000000e+00 0.0000e+00 -1.0000e+00
       22  1    1    2    0    0 +1.1705150102e+02 -1.8275646610e+02 -6.7115095215e+02 7.0536840045e+02 0.0000000000e+00 0.0000e+00 1.0000e+00
</event>
<event>
 6      1 +1.4834189e-01 1.01955200e+04 7.81653100e-03 6.92705300e-02
  1000022 -1    0    0    0    0 +0.0000000000e+00 +0.0000000000e+00 +4.4721471353e+01 1.0000100000e+04 1.0000000000e+04 0.0000e+00 -1.0000e+00
  1000022 -1    0    0    0    0 -0.0000000000e+00 -0.0000000000e+00 -4.4721471353e+01 1.0000100000e+04 1.0000000000e+04 0.0000e+00 -1.0000e+00
      -24  1    1    2    0    0 +8.6406886626e+03 -1.5043241993e+03 -4.3818801998e+03 9.8046794245e+03 7.9829010000e+01 0.0000e+00 -1.0000e+00
       24  1    1    2    0    0 -8.4456731376e+03 +1.1096511726e+03 +4.5942773413e+03 9.6785576111e+03 7.9829010000e+01 0.0000e+00 -1.0000e+00
       22  1    1    2    0    0 -1.6387284410e+02 +3.8967210044e+02 -2.2957816029e+02 4.8104551404e+02 0.0000000000e+00 0.0000e+00 1.0000e+00
       22  1    1    2    0    0 -3.1142680917e+01 +5.0009261993e+00 +1.7181018773e+01 3.5917450405e+01 0.0000000000e+00 0.0000e+00 1.0000e+00
</event>
<event>
 6      1 +1.4834189e-01 1.03913400e+04 7.81653100e-03 6.91562400e-02
  1000022 -1    0    0    0    0 +0.0000000000e+00 +0.0000000000e+00 +4.4721471353e+01 1.0000100000e+04 1.0000000000e+04 0.0000e+00 1.0000e+00
  1000022 -1    0    0    0    0 -0.0000000000e+00 -0.0000000000e+00 -4.4721471353e+01 1.0000100000e+04 1.0000000000e+04 0.0000e+00 1.0000e+00
      -24  1    1    2    0    0 -1.8072823418e+03 -2.6786600019e+03 -8.5596469246e+03 9.1496129434e+03 7.9829010000e+01 0.0000e+00 1.0000e+00
       24  1    1    2    0    0 +1.9078368162e+03 -4.3465293536e+02 +5.2713151947e+03 5.6233354021e+03 7.9829010000e+01 0.0000e+00 1.0000e+00
       22  1    1    2    0    0 +2.7060321589e+02 +3.1678102805e+03 +3.5532512127e+03 4.7680019143e+03 0.0000000000e+00 0.0000e+00 1.0000e+00
       22  1    1    2    0    0 -3.7115769030e+02 -5.4497343273e+01 -2.6491948284e+02 4.5924974020e+02 0.0000000000e+00 0.0000e+00 1.0000e+00
</event>
<event>
 6      1 +1.4834189e-01 1.00063200e+04 7.81653100e-03 6.93834400e-02
  1000022 -1    0    0    0    0 +0.0000000000e+00 +0.0000000000e+00 +4.4721471353e+01 1.0000100000e+04 1.0000000000e+04 0.0000e+00 1.0000e+00
  1000022 -1    0    0    0    0 -0.0000000000e+00 -0.0000000000e+00 -4.4721471353e+01 1.0000100000e+04 1.0000000000e+04 0.0000e+00 1.0000e+00
      -24  1    1    2    0    0 -7.1555491590e+03 -4.4285957436e+03 +5.3904561347e+03 9.9938848321e+03 7.9829010000e+01 0.0000e+00 -1.0000e+00
       24  1    1    2    0    0 +2.5896460258e+03 +1.7655163633e+03 -2.2069604378e+03 3.8341050602e+03 7.9829010000e+01 0.0000e+00 1.0000e+00
       22  1    1    2    0    0 +1.2069187237e+01 +3.9854911435e-01 -3.0274817857e+00 1.2449488661e+01 0.0000000000e+00 0.0000e+00 -1.0000e+00
       22  1    1    2    0    0 +4.5538339459e+03 +2.6626808311e+03 -3.1804682152e+03 6.1597606190e+03 0.0000000000e+00 0.0000e+00 -1.0000e+00
</event>
<event>
 6      1 +1.4834189e-01 1.07796700e+04 7.81653100e-03 6.89369000e-02
  1000022 -1    0    0    0    0 +0.0000000000e+00 +0.0000000000e+00 +4.4721471353e+01 1.0000100000e+04 1.0000000000e+04 0.0000e+00 -1.0000e+00
  1000022 -1    0    0    0    0 -0.0000000000e+00 -0.0000000000e+00 -4.4721471353e+01 1.0000100000e+04 1.0000000000e+04 0.0000e+00 -1.0000e+00
      -24  1    1    2    0    0 -5.3656165924e+03 -1.7286454058e+03 -6.5301087451e+03 8.6270939052e+03 7.9829010000e+01 0.0000e+00 -1.0000e+00
       24  1    1    2    0    0 +1.0653293934e+03 +2.1609181025e+02 +1.8018359972e+03 2.1058509013e+03 7.9829010000e+01 0.0000e+00 -1.0000e+00
       22  1    1    2    0    0 +1.1639689544e+03 +8.1065075223e+02 -1.6191323521e+03 2.1525724012e+03 0.0000000000e+00 0.0000e+00 -1.0000e+00
       22  1    1    2    0    0 +3.1363182446e+03 +7.0190284337e+02 +6.3474051000e+03 7.1146827924e+03 0.0000000000e+00 0.0000e+00 -1.0000e+00
</event>
<event>
 6      1 +1.4834189e-01 1.00107900e+04 7.81653100e-03 6.93807400e-02
  1000022 -1    0    0    0    0 +0.0000000000e+00 +0.0000000000e+00 +4.4721471353e+01 1.0000100000e+04 1.0000000000e+04 0.0000e+00 1.0000e+00
  1000022 -1    0    0    0    0 -0.0000000000e+00 -0.0000000000e+00 -4.4721471353e+01 1.0000100000e+04 1.0000000000e+04 0.0000e+00 1.0000e+00
      -24  1    1    2    0    0 -3.3205755164e+03 -3.5493747776e+03 +6.3637921203e+03 8.0080275907e+03 7.9829010000e+01 0.0000e+00 1.0000e+00
       24  1    1    2    0    0 +4.1083175996e+03 +3.9943957826e+03 -7.7653093967e+03 9.6509001582e+03 7.9829010000e+01 0.0000e+00 1.0000e+00
       22  1    1    2    0    0 -9.3079262887e+02 -5.8769994287e+02 +1.6731141152e+03 2.0027673313e+03 0.0000000000e+00 0.0000e+00 -1.0000e+00
       22  1    1    2    0    0 +1.4305054569e+02 +1.4267893784e+02 -2.7159683877e+02 3.3850491984e+02 0.0000000000e+00 0.0000e+00 1.0000e+00
</event>
<event>
 6      1 +1.4834189e-01 1.01088400e+04 7.81653100e-03 6.93219500e-02
  1000022 -1    0    0    0    0 +0.0000000000e+00 +0.0000000000e+00 +4.4721471353e+01 1.0000100000e+04 1.0000000000e+04 0.0000e+00 -1.0000e+00
  1000022 -1    0    0    0    0 -0.0000000000e+00 -0.0000000000e+00 -4.4721471353e+01 1.0000100000e+04 1.0000000000e+04 0.0000e+00 -1.0000e+00
      -24  1    1    2    0    0 +5.6115046144e+03 +5.6838955279e+03 -5.3263538359e+03 9.6006286391e+03 7.9829010000e+01 0.0000e+00 -1.0000e+00
       24  1    1    2    0    0 -1.5476524856e+03 -2.0441129646e+03 +6.6900547180e+02 2.6509558692e+03 7.9829010000e+01 0.0000e+00 1.0000e+00
       22  1    1    2    0    0 +1.5540138698e+02 +1.9364045872e+02 -1.5126352556e+02 2.9073505550e+02 0.0000000000e+00 0.0000e+00 1.0000e+00
       22  1    1    2    0    0 -4.2192535158e+03 -3.8334230220e+03 +4.8086118897e+03 7.4578804363e+03 0.0000000000e+00 0.0000e+00 -1.0000e+00
</event>
<event>
 6      1 +1.4834189e-01 1.01332800e+04 7.81653100e-03 6.93074000e-02
  1000022 -1    0    0    0    0 +0.0000000000e+00 +0.0000000000e+00 +4.4721471353e+01 1.0000100000e+04 1.0000000000e+04 0.0000e+00 -1.0000e+00
  1000022 -1    0    0    0    0 -0.0000000000e+00 -0.0000000000e+00 -4.4721471353e+01 1.0000100000e+04 1.0000000000e+04 0.0000e+00 -1.0000e+00
      -24  1    1    2    0    0 -3.0511755339e+03 +6.2993640948e+03 +6.3656947637e+03 9.4615063617e+03 7.9829010000e+01 0.0000e+00 -1.0000e+00
       24  1    1    2    0    0 +4.6383741645e+02 -3.5202675656e+03 -3.4308713191e+03 4.9380846045e+03 7.9829010000e+01 0.0000e+00 -1.0000e+00
       22  1    1    2    0    0 +2.7256231683e+03 -3.0493347601e+03 -3.2035343406e+03 5.1951993615e+03 0.0000000000e+00 0.0000e+00 -1.0000e+00
       22  1    1    2    0    0 -1.3828505086e+02 +2.7023823095e+02 +2.6871089597e+02 4.0540967227e+02 0.0000000000e+00 0.0000e+00 -1.0000e+00
</event>
<event>
 6      1 +1.4834189e-01 1.01104100e+04 7.81653100e-03 6.93210100e-02
  1000022 -1    0    0    0    0 +0.0000000000e+00 +0.0000000000e+00 +4.4721471353e+01 1.0000100000e+04 1.0000000000e+04 0.0000e+00 1.0000e+00
  1000022 -1    0    0    0    0 -0.0000000000e+00 -0.0000000000e+00 -4.4721471353e+01 1.0000100000e+04 1.0000000000e+04 0.0000e+00 1.0000e+00
      -24  1    1    2    0    0 +1.9463959609e+03 +7.8229927699e+03 +1.2782387278e+03 8.1625939523e+03 7.9829010000e+01 0.0000e+00 -1.0000e+00
       24  1    1    2    0    0 -1.8057798839e+03 -8.7083252746e+03 -8.6483744021e+02 8.9358875634e+03 7.9829010000e+01 0.0000e+00 -1.0000e+00
       22  1    1    2    0    0 +4.6027362116e+02 +1.6458647780e+03 +2.4994762551e+02 1.7271932403e+03 0.0000000000e+00 0.0000e+00 -1.0000e+00
       22  1    1    2    0    0 -6.0088969816e+02 -7.6053227334e+02 -6.6334891315e+02 1.1745252440e+03 0.0000000000e+00 0.0000e+00 -1.0000e+00
</event>
<event>
 6      1 +1.4834189e-01 1.00006700e+04 7.81653100e-03 6.93868500e-02
  1000022 -1    0    0    0    0 +0.0000000000e+00 +0.0000000000e+00 +4.4721471353e+01 1.0000100000e+04 1.0000000000e+04 0.0000e+00 -1.0000e+00
  1000022 -1    0    0    0    0 -0.0000000000e+00 -0.0000000000e+00 -4.4721471353e+01 1.0000100000e+04 1.0000000000e+04 0.0000e+00 -1.0000e+00
      -24  1    1    2    0    0 -1.6700271665e+03 +3.9092675431e+03 +9.0000293860e+03 9.9538065624e+03 7.9829010000e+01 0.0000e+00 -1.0000e+00
       24  1    1    2    0    0 +1.4832854374e+03 -3.4123956272e+03 -7.7652636558e+03 8.6110552153e+03 7.9829010000e+01 0.0000e+00 -1.0000e+00
       22  1    1    2    0    0 -8.6814810602e+00 +1.4295928621e+01 +4.2554432493e+01 4.5723313674e+01 0.0000000000e+00 0.0000e+00 1.0000e+00
       22  1    1    2    0    0 +1.9542321022e+02 -5.1116784450e+02 -1.2773201627e+03 1.3896149087e+03 0.0000000000e+00 0.0000e+00 1.0000e+00
</event>
<event>
 6      1 +1.4834189e-01 1.00006700e+04 7.81653100e-03 6.93868500e-02
  1000022 -1    0    0    0    0 +0.0000000000e+00 +0.0000000000e+00 +4.4721471353e+01 1.0000100000e+04 1.0000000000e+04 0.0000e+00 1.0000e+00
  1000022 -1    0    0    0    0 -0.0000000000e+00 -0.0000000000e+00 -4.4721471353e+01 1.0000100000e+04 1.0000000000e+04 0.0000e+00 1.0000e+00
      -24  1    1    2    0    0 -5.3581002853e+02 +4.4794529517e+03 -8.8373972047e+03 9.9226283391e+03 7.9829010000e+01 0.0000e+00 -1.0000e+00
       24  1    1    2    0    0 +5.2767941907e+02 -4.5043978969e+03 +8.8834952261e+03 9.9745128245e+03 7.9829010000e+01 0.0000e+00 -1.0000e+00
       22  1    1    2    0    0 -1.0147059124e+00 +3.5525899719e+01 -6.8199327288e+01 7.6904274403e+01 0.0000000000e+00 0.0000e+00 1.0000e+00
       22  1    1    2    0    0 +9.1453153774e+00 -1.0580954458e+01 +2.2101305835e+01 2.6154561939e+01 0.0000000000e+00 0.0000e+00 1.0000e+00
</event>
<event>
 6      1 +1.4834189e-01 1.00001300e+04 7.81653100e-03 6.93871800e-02
  1000022 -1    0    0    0    0 +0.0000000000e+00 +0.0000000000e+00 +4.4721471353e+01 1.0000100000e+04 1.0000000000e+04 0.0000e+00 -1.0000e+00
  1000022 -1    0    0    0    0 -0.0000000000e+00 -0.0000000000e+00 -4.4721471353e+01 1.0000100000e+04 1.0000000000e+04 0.0000e+00 -1.0000e+00
      -24  1    1    2    0    0 +2.6313889477e+03 +9.4740090654e+03 -1.4645728891e+03 9.9414486864e+03 7.9829010000e+01 0.0000e+00 1.0000e+00
       24  1    1    2    0    0 -2.4747503071e+03 -8.9236713784e+03 +1.3858122808e+03 9.3639280379e+03 7.9829010000e+01 0.0000e+00 1.0000e+00
       22  1    1    2    0    0 +1.3249071244e+01 +5.6926376893e+01 -5.1966314196e+00 5.8678405339e+01 0.0000000000e+00 0.0000e+00 1.0000e+00
       22  1    1    2    0    0 -1.6988771188e+02 -6.0726406393e+02 +8.3957239650e+01 6.3614487035e+02 0.0000000000e+00 0.0000e+00 1.0000e+00
</event>
<event>
 6      1 +1.4834189e-01 1.00426000e+04 7.81653100e-03 6.93616000e-02
  1000022 -1    0    0    0    0 +0.0000000000e+00 +0.0000000000e+00 +4.4721471353e+01 1.0000100000e+04 1.0000000000e+04 0.0000e+00 1.0000e+00
  1000022 -1    0    0    0    0 -0.0000000000e+00 -0.0000000000e+00 -4.4721471353e+01 1.0000100000e+04 1.0000000000e+04 0.0000e+00 1.0000e+00
      -24  1    1    2    0    0 -1.7209914317e+03 +5.9593319413e+02 +5.5819258786e+03 5.8720709349e+03 7.9829010000e+01 0.0000e+00 1.0000e+00
       24  1    1    2    0    0 +1.7407285542e+03 -2.0748521468e+02 -3.3210638615e+03 3.7561980587e+03 7.9829010000e+01 0.0000e+00 1.0000e+00
       22  1    1    2    0    0 +1.3562957400e+03 -8.1648267171e+02 -6.0838026955e+03 6.2864009835e+03 0.0000000000e+00 0.0000e+00 1.0000e+00
       22  1    1    2    0    0 -1.3760328624e+03 +4.2803469226e+02 +3.8229406784e+03 4.0855300228e+03 0.0000000000e+00 0.0000e+00 1.0000e+00
</event>
<event>
 6      1 +1.4834189e-01 1.00092400e+04 7.81653100e-03 6.93816800e-02
  1000022 -1    0    0    0    0 +0.0000000000e+00 +0.0000000000e+00 +4.4721471353e+01 1.0000100000e+04 1.0000000000e+04 0.0000e+00 -1.0000e+00
  1000022 -1    0    0    0    0 -0.0000000000e+00 -0.0000000000e+00 -4.4721471353e+01 1.0000100000e+04 1.0000000000e+04 0.0000e+00 -1.0000e+00
      -24  1    1    2    0    0 +1.0516917939e+03 -4.6164360708e+03 +4.7044416053e+03 6.6750042033e+03 7.9829010000e+01 0.0000e+00 -1.0000e+00
       24  1    1    2    0    0 -1.4903923398e+03 +7.0143892681e+03 -6.9562944914e+03 9.9909625088e+03 7.9829010000e+01 0.0000e+00 -1.0000e+00
       22  1    1    2    0    0 +4.7128731555e+02 -2.2848420007e+03 +2.0775886720e+03 3.1239381223e+03 0.0000000000e+00 0.0000e+00 -1.0000e+00
       22  1    1    2    0    0 -3.2586769655e+01 -1.1311119666e+02 +1.7426421403e+02 2.1029516556e+02 0.0000000000e+00 0.0000e+00 1.0000e+00
</event>
<event>
 6      1 +1.4834189e-01 1.00026600e+04 7.81653100e-03 6.93856500e-02
  1000022 -1    0    0    0    0 +0.0000000000e+00 +0.0000000000e+00 +4.4721471353e+01 1.0000100000e+04 1.0000000000e+04 0.0000e+00 -1.0000e+00
  1000022 -1    0    0    0    0 -0.0000000000e+00 -0.0000000000e+00 -4.4721471353e+01 1.0000100000e+04 1.0000000000e+04 0.0000e+00 -1.0000e+00
      -24  1    1    2    0    0 -6.5016343471e+03 +2.1138842883e+03 -7.2049424136e+03 9.9326393180e+03 7.9829010000e+01 0.0000e+00 1.0000e+00
       24  1    1    2    0    0 +3.9493979099e+03 -1.1777104863e+03 +4.0931486004e+03 5.8090432926e+03 7.9829010000e+01 0.0000e+00 1.0000e+00
       22  1    1    2    0    0 +2.5866322224e+03 -9.7016049934e+02 +3.1550824421e+03 4.1936169192e+03 0.0000000000e+00 0.0000e+00 1.0000e+00
       22  1    1    2    0    0 -3.4395785223e+01 +3.3986697419e+01 -4.3288628843e+01 6.4900470181e+01 0.0000000000e+00 0.0000e+00 -1.0000e+00
</event>
<event>
 6      1 +1.4834189e-01 1.00004400e+04 7.81653100e-03 6.93869900e-02
  1000022 -1    0    0    0    0 +0.0000000000e+00 +0.0000000000e+00 +4.4721471353e+01 1.0000100000e+04 1.0000000000e+04 0.0000e+00 -1.0000e+00
  1000022 -1    0    0    0    0 -0.0000000000e+00 -0.0000000000e+00 -4.4721471353e+01 1.0000100000e+04 1.0000000000e+04 0.0000e+00 -1.0000e+00
      -24  1    1    2    0    0 +3.0944324203e+03 -9.1453150850e+03 +1.2121756729e+03 9.7307781056e+03 7.9829010000e+01 0.0000e+00 -1.0000e+00
       24  1    1    2    0    0 -3.1880426499e+03 +9.3777244374e+03 -1.2672609438e+03 9.9858727476e+03 7.9829010000e+01 0.0000e+00 -1.0000e+00
       22  1    1    2    0    0 -1.0096478892e+01 +1.0168207426e+01 +2.6366368171e+00 1.4569941043e+01 0.0000000000e+00 0.0000e+00 -1.0000e+00
       22  1    1    2    0    0 +1.0370670849e+02 -2.4257755975e+02 +5.2448634123e+01 2.6897920570e+02 0.0000000000e+00 0.0000e+00 -1.0000e+00
</event>
<event>
 6      1 +1.4834189e-01 1.00033100e+04 7.81653100e-03 6.93852500e-02
  1000022 -1    0    0    0    0 +0.0000000000e+00 +0.0000000000e+00 +4.4721471353e+01 1.0000100000e+04 1.0000000000e+04 0.0000e+00 -1.0000e+00
  1000022 -1    0    0    0    0 -0.0000000000e+00 -0.0000000000e+00 -4.4721471353e+01 1.0000100000e+04 1.0000000000e+04 0.0000e+00 -1.0000e+00
      -24  1    1    2    0    0 -2.3392418170e+02 -7.5486540571e+02 -9.8928289404e+03 9.9246652043e+03 7.9829010000e+01 0.0000e+00 -1.0000e+00
       24  1    1    2    0    0 +1.8997175984e+02 +7.3885823981e+02 +9.6419649116e+03 9.6724278646e+03 7.9829010000e+01 0.0000e+00 -1.0000e+00
       22  1    1    2    0    0 +3.3308194155e+01 +5.5745380891e+01 +3.1789424384e+02 3.2445914004e+02 0.0000000000e+00 0.0000e+00 1.0000e+00
       22  1    1    2    0    0 +1.0644227708e+01 -3.9738214992e+01 -6.7030215060e+01 7.8647791102e+01 0.0000000000e+00 0.0000e+00 1.0000e+00
</event>
<event>
 6      1 +1.4834189e-01 1.00132600e+04 7.81653100e-03 6.93792500e-02
  1000022 -1    0    0    0    0 +0.0000000000e+00 +0.0000000000e+00 +4.4721471353e+01 1.0000100000e+04 1.0000000000e+04 0.0000e+00 -1.0000e+00
  1000022 -1    0    0    0    0 -0.0000000000e+00 -0.0000000000e+00 -4.4721471353e+01 1.0000100000e+04 1.0000000000e+04 0.0000e+00 -1.0000e+00
      -24  1    1    2    0    0 +6.4580105358e+03 -6.6643717247e+02 -6.3895408261e+03 9.1094809525e+03 7.9829010000e+01 0.0000e+00 1.0000e+00
       24  1    1    2    0    0 -7.0845203749e+03 +5.9919979063e+02 +6.6750792165e+03 9.7525650241e+03 7.9829010000e+01 0.0000e+00 1.0000e+00
       22  1    1    2    0    0 -1.5254458546e+02 +4.5268823620e+01 +1.7207882429e+02 2.3437200924e+02 0.0000000000e+00 0.0000e+00 1.0000e+00
       22  1    1    2    0    0 +7.7905442455e+02 +2.1968558219e+01 -4.5761721468e+02 9.0378201417e+02 0.0000000000e+00 0.0000e+00 -1.0000e+00
</event>
<event>
 6      1 +1.4834189e-01 1.04575300e+04 7.81653100e-03 6.91181800e-02
  1000022 -1    0    0    0    0 +0.0000000000e+00 +0.0000000000e+00 +4.4721471353e+01 1.0000100000e+04 1.0000000000e+04 0.0000e+00 -1.0000e+00
  1000022 -1    0    0    0    0 -0.0000000000e+00 -0.0000000000e+00 -4.4721471353e+01 1.0000100000e+04 1.0000000000e+04 0.0000e+00 -1.0000e+00
      -24  1    1    2    0    0 +1.7939990076e+03 +8.1704512629e+03 -4.2695437572e+02 8.3763577400e+03 7.9829010000e+01 0.0000e+00 1.0000e+00
       24  1    1    2    0    0 -2.1299999684e+03 -8.8346581830e+03 +2.1655871081e+03 9.3426027032e+03 7.9829010000e+01 0.0000e+00 1.0000e+00
       22  1    1    2    0    0 -3.8597637044e+01 -1.2749860784e+02 +1.4926659377e+02 2.0006546079e+02 0.0000000000e+00 0.0000e+00 -1.0000e+00
       22  1    1    2    0    0 +3.7459859786e+02 +7.9170552799e+02 -1.8878993261e+03 2.0811740961e+03 0.0000000000e+00 0.0000e+00 1.0000e+00
</event>
<event>
 6      1 +1.4834189e-01 1.00282200e+04 7.81653100e-03 6.93702400e-02
  1000022 -1    0    0    0    0 +0.0000000000e+00 +0.0000000000e+00 +4.4721471353e+01 1.0000100000e+04 1.0000000000e+04 0.0000e+00 -1.0000e+00
  1000022 -1    0    0    0    0 -0.0000000000e+00 -0.0000000000e+00 -4.4721471353e+01 1.0000100000e+04 1.0000000000e+04 0.0000e+00 -1.0000e+00
      -24  1    1    2    0    0 +1.2014545822e+03 +1.3074796422e+03 -9.8122862625e+03 9.9719772611e+03 7.9829010000e+01 0.0000e+00 -1.0000e+00
       24  1    1    2    0    0 -1.1171714219e+03 -1.3167275202e+03 +9.7187453423e+03 9.8712829484e+03 7.9829010000e+01 0.0000e+00 -1.0000e+00
       22  1    1    2    0    0 -5.0259187237e+01 +2.7133520643e+01 +1.4338571461e+00 5.7133788519e+01 0.0000000000e+00 0.0000e+00 -1.0000e+00
       22  1    1    2    0    0 -3.4023973144e+01 -1.7885642605e+01 +9.2107063110e+01 9.9806001997e+01 0.0000000000e+00 0.0000e+00 -1.0000e+00
</event>
<event>
 6      1 +1.4834189e-01 1.00219400e+04 7.81653100e-03 6.93740300e-02
  1000022 -1    0    0    0    0 +0.0000000000e+00 +0.0000000000e+00 +4.4721471353e+01 1.0000100000e+04 1.0000000000e+04 0.0000e+00 -1.0000e+00
  1000022 -1    0    0    0    0 -0.0000000000e+00 -0.0000000000e+00 -4.4721471353e+01 1.0000100000e+04 1.0000000000e+04 0.0000e+00 -1.0000e+00
      -24  1    1    2    0    0 -8.0132276196e+03 -3.5412081312e+03 -4.6587614125e+03 9.9228223042e+03 7.9829010000e+01 0.0000e+00 1.0000e+00
       24  1    1    2    0    0 +8.0299008011e+03 +3.6280082633e+03 +4.6816234857e+03 9.9782624724e+03 7.9829010000e+01 0.0000e+00 1.0000e+00
       22  1    1    2    0    0 -1.2799596059e+01 -5.1921628303e+00 -8.3388155588e+00 1.6134561012e+01 0.0000000000e+00 0.0000e+00 1.0000e+00
       22  1    1    2    0    0 -3.8735855019e+00 -8.1607969261e+01 -1.4523257696e+01 8.2980662360e+01 0.0000000000e+00 0.0000e+00 -1.0000e+00
</event>
<event>
 6      1 +1.4834189e-01 1.00036900e+04 7.81653100e-03 6.93850300e-02
  1000022 -1    0    0    0    0 +0.0000000000e+00 +0.0000000000e+00 +4.4721471353e+01 1.0000100000e+04 1.0000000000e+04 0.0000e+00 1.0000e+00
  1000022 -1    0    0    0    0 -0.0000000000e+00 -0.0000000000e+00 -4.4721471353e+01 1.0000100000e+04 1.0000000000e+04 0.0000e+00 1.0000e+00
      -24  1    1    2    0    0 +3.6394879537e+02 -2.3794835518e+02 +9.2722035855e+01 4.5171693809e+02 7.9829010000e+01 0.0000e+00 0.0000e+00
       24  1    1    2    0    0 -8.5437068271e+03 +4.6667227250e+03 -2.1750238716e+03 9.9754863967e+03 7.9829010000e+01 0.0000e+00 1.0000e+00
       22  1    1    2    0    0 -3.1392211910e+00 +2.6292948452e+01 +9.7101805168e+00 2.8203926210e+01 0.0000000000e+00 0.0000e+00 -1.0000e+00
       22  1    1    2    0    0 +8.1828972529e+03 -4.4550673182e+03 +2.0725916552e+03 9.5447927390e+03 0.0000000000e+00 0.0000e+00 1.0000e+00
</event>
<event>
 6      1 +1.4834189e-01 1.00296800e+04 7.81653100e-03 6.93693600e-02
  1000022 -1    0    0    0    0 +0.0000000000e+00 +0.0000000000e+00 +4.4721471353e+01 1.0000100000e+04 1.0000000000e+04 0.0000e+00 -1.0000e+00
  1000022 -1    0    0    0    0 -0.0000000000e+00 -0.0000000000e+00 -4.4721471353e+01 1.0000100000e+04 1.0000000000e+04 0.0000e+00 -1.0000e+00
      -24  1    1    2    0    0 +1.9601286304e+02 +3.1978175897e+02 -3.1679219698e+02 4.9740464689e+02 7.9829010000e+01 0.0000e+00 0.0000e+00
       24  1    1    2    0    0 -4.5190549519e+03 -4.1772980148e+03 +7.7579579509e+03 9.9027249079e+03 7.9829010000e+01 0.0000e+00 -1.0000e+00
       22  1    1    2    0    0 +4.2705752602e+03 +3.9704800948e+03 -7.4657466309e+03 9.4731144822e+03 0.0000000000e+00 0.0000e+00 -1.0000e+00
       22  1    1    2    0    0 +5.2466828752e+01 -1.1296383895e+02 +2.4580877018e+01 1.2695596301e+02 0.0000000000e+00 0.0000e+00 -1.0000e+00
</event>
<event>
 6      1 +1.4834189e-01 1.00016500e+04 7.81653100e-03 6.93862600e-02
  1000022 -1    0    0    0    0 +0.0000000000e+00 +0.0000000000e+00 +4.4721471353e+01 1.0000100000e+04 1.0000000000e+04 0.0000e+00 -1.0000e+00
  1000022 -1    0    0    0    0 -0.0000000000e+00 -0.0000000000e+00 -4.4721471353e+01 1.0000100000e+04 1.0000000000e+04 0.0000e+00 -1.0000e+00
      -24  1    1    2    0    0 -5.3033043308e+03 +3.4463729424e+03 +6.7199022003e+03 9.2285416798e+03 7.9829010000e+01 0.0000e+00 -1.0000e+00
       24  1    1    2    0    0 +5.7240358257e+03 -3.6369339526e+03 -7.1782264955e+03 9.8754839376e+03 7.9829010000e+01 0.0000e+00 -1.0000e+00
       22  1    1    2    0    0 -4.9206374343e+02 +2.3721239704e+02 +5.4709022498e+02 7.7311329258e+02 0.0000000000e+00 0.0000e+00 -1.0000e+00
       22  1    1    2    0    0 +7.1332248538e+01 -4.6651386838e+01 -8.8765929792e+01 1.2306108998e+02 0.0000000000e+00 0.0000e+00 1.0000e+00
</event>
<event>
 6      1 +1.4834189e-01 9.12457700e+03 7.81653100e-03 6.99449500e-02
  1000022 -1    0    0    0    0 +0.0000000000e+00 +0.0000000000e+00 +4.4721471353e+01 1.0000100000e+04 1.0000000000e+04 0.0000e+00 1.0000e+00
  1000022 -1    0    0    0    0 -0.0000000000e+00 -0.0000000000e+00 -4.4721471353e+01 1.0000100000e+04 1.0000000000e+04 0.0000e+00 1.0000e+00
      -24  1    1    2    0    0 -7.5901824311e+03 +3.5252175618e+03 +3.0818282945e+03 8.9186359105e+03 7.9829010000e+01 0.0000e+00 -1.0000e+00
       24  1    1    2    0    0 -9.1227505141e+02 -5.0665477386e+02 -1.3797724570e+03 1.7317879585e+03 7.9829010000e+01 0.0000e+00 1.0000e+00
       22  1    1    2    0    0 +8.5666250235e+03 -2.9521759960e+03 -1.7735800967e+03 9.2329840119e+03 0.0000000000e+00 0.0000e+00 -1.0000e+00
       22  1    1    2    0    0 -6.4167540937e+01 -6.6386791933e+01 +7.1524259135e+01 1.1679211916e+02 0.0000000000e+00 0.0000e+00 -1.0000e+00
</event>
<event>
 6      1 +1.4834189e-01 1.00013100e+04 7.81653100e-03 6.93864700e-02
  1000022 -1    0    0    0    0 +0.0000000000e+00 +0.0000000000e+00 +4.4721471353e+01 1.0000100000e+04 1.0000000000e+04 0.0000e+00 1.0000e+00
  1000022 -1    0    0    0    0 -0.0000000000e+00 -0.0000000000e+00 -4.4721471353e+01 1.0000100000e+04 1.0000000000e+04 0.0000e+00 1.0000e+00
      -24  1    1    2    0    0 +3.9689135539e+02 +4.5633559012e+02 -1.5418157725e+02 6.2921343628e+02 7.9829010000e+01 0.0000e+00 0.0000e+00
       24  1    1    2    0    0 -2.1869498529e+03 -2.5661827809e+03 +1.1947169775e+03 3.5779554289e+03 7.9829010000e+01 0.0000e+00 1.0000e+00
       22  1    1    2    0    0 -4.1597445006e+03 -4.5018021005e+03 +1.9127823039e+03 6.4209370503e+03 0.0000000000e+00 0.0000e+00 1.0000e+00
       22  1    1    2    0    0 +5.9498029981e+03 +6.6116492913e+03 -2.9533177041e+03 9.3720940845e+03 0.0000000000e+00 0.0000e+00 1.0000e+00
</event>
<event>
 6      1 +1.4834189e-01 1.00150800e+04 7.81653100e-03 6.93781600e-02
  1000022 -1    0    0    0    0 +0.0000000000e+00 +0.0000000000e+00 +4.4721471353e+01 1.0000100000e+04 1.0000000000e+04 0.0000e+00 1.0000e+00
  1000022 -1    0    0    0    0 -0.0000000000e+00 -0.0000000000e+00 -4.4721471353e+01 1.0000100000e+04 1.0000000000e+04 0.0000e+00 1.0000e+00
      -24  1    1    2    0    0 +1.6912367431e+03 -7.9344471130e+03 -4.3234630316e+03 9.1931734437e+03 7.9829010000e+01 0.0000e+00 -1.0000e+00
       24  1    1    2    0    0 -1.6795757430e+03 +8.6455616674e+03 +4.7042081667e+03 9.9851218505e+03 7.9829010000e+01 0.0000e+00 -1.0000e+00
       22  1    1    2    0    0 -3.1187013170e+01 -5.7637766488e+02 -3.6936803825e+02 6.8528577254e+02 0.0000000000e+00 0.0000e+00 -1.0000e+00
       22  1    1    2    0    0 +1.9526013103e+01 -1.3473688956e+02 -1.1377096912e+01 1.3661893328e+02 0.0000000000e+00 0.0000e+00 -1.0000e+00
</event>
<event>
 6      1 +1.4834189e-01 1.00041700e+04 7.81653100e-03 6.93847400e-02
  1000022 -1    0    0    0    0 +0.0000000000e+00 +0.0000000000e+00 +4.4721471353e+01 1.0000100000e+04 1.0000000000e+04 0.0000e+00 -1.0000e+00
  1000022 -1    0    0    0    0 -0.0000000000e+00 -0.0000000000e+00 -4.4721471353e+01 1.0000100000e+04 1.0000000000e+04 0.0000e+00 -1.0000e+00
      -24  1    1    2    0    0 -3.6578882578e+03 +7.3209640017e+03 -5.5202154070e+03 9.8719709903e+03 7.9829010000e+01 0.0000e+00 -1.0000e+00
       24  1    1    2    0    0 +6.9652259339e+02 -1.1173215979e+03 +8.0044390649e+02 1.5429304568e+03 7.9829010000e+01 0.0000e+00 1.0000e+00
       22  1    1    2    0    0 -6.0085858481e+01 +8.3253917627e+01 -6.9631369459e+01 1.2405665158e+02 0.0000000000e+00 0.0000e+00 1.0000e+00
       22  1    1    2    0    0 +3.0214515229e+03 -6.2868963214e+03 +4.7894028700e+03 8.4612419013e+03 0.0000000000e+00 0.0000e+00 -1.0000e+00
</event>
<event>
 6      1 +1.4834189e-01 1.02541000e+04 7.81653100e-03 6.92360700e-02
  1000022 -1    0    0    0    0 +0.0000000000e+00 +0.0000000000e+00 +4.4721471353e+01 1.0000100000e+04 1.0000000000e+04 0.0000e+00 1.0000e+00
  1000022 -1    0    0    0    0 -0.0000000000e+00 -0.0000000000e+00 -4.4721471353e+01 1.0000100000e+04 1.0000000000e+04 0.0000e+00 1.0000e+00
      -24  1    1    2    0    0 +5.9379641395e+02 -5.8264056889e+03 -6.8611337590e+03 9.0211488493e+03 7.9829010000e+01 0.0000e+00 1.0000e+00
       24  1    1    2    0    0 -1.1553227209e+03 +3.5868203958e+03 +4.6287680278e+03 5.9692476299e+03 7.9829010000e+01 0.0000e+00 1.0000e+00
       22  1    1    2    0    0 -3.0110899712e+02 +2.1274367623e+03 +3.1061194860e+03 3.7768547850e+03 0.0000000000e+00 0.0000e+00 1.0000e+00
       22  1    1    2    0    0 +8.6263530410e+02 +1.1214853078e+02 -8.7375375483e+02 1.2329487357e+03 0.0000000000e+00 0.0000e+00 1.0000e+00
</event>
<event>
 6      1 +1.4834189e-01 1.00207300e+04 7.81653100e-03 6.93747500e-02
  1000022 -1    0    0    0    0 +0.0000000000e+00 +0.0000000000e+00 +4.4721471353e+01 1.0000100000e+04 1.0000000000e+04 0.0000e+00 1.0000e+00
  1000022 -1    0    0    0    0 -0.0000000000e+00 -0.0000000000e+00 -4.4721471353e+01 1.0000100000e+04 1.0000000000e+04 0.0000e+00 1.0000e+00
      -24  1    1    2    0    0 +3.8236256497e+03 +4.1168205556e+02 -4.3206855394e+03 5.7848328778e+03 7.9829010000e+01 0.0000e+00 1.0000e+00
       24  1    1    2    0    0 -5.6732633870e+03 -1.4599929067e+01 +6.3806626677e+03 8.5384635249e+03 7.9829010000e+01 0.0000e+00 1.0000e+00
       22  1    1    2    0    0 -9.3073610285e+02 +1.2105487333e+02 +1.0934192932e+03 1.4410030279e+03 0.0000000000e+00 0.0000e+00 -1.0000e+00
       22  1    1    2    0    0 +2.7803738402e+03 -5.1813699983e+02 -3.1533964216e+03 4.2359005694e+03 0.0000000000e+00 0.0000e+00 1.0000e+00
</event>
<event>
 6      1 +1.4834189e-01 5.85577600e+03 7.81653100e-03 7.27788500e-02
  1000022 -1    0    0    0    0 +0.0000000000e+00 +0.0000000000e+00 +4.4721471353e+01 1.0000100000e+04 1.0000000000e+04 0.0000e+00 -1.0000e+00
  1000022 -1    0    0    0    0 -0.0000000000e+00 -0.0000000000e+00 -4.4721471353e+01 1.0000100000e+04 1.0000000000e+04 0.0000e+00 -1.0000e+00
      -24  1    1    2    0    0 -5.1337621505e+03 +2.0964058412e+03 +3.5257284108e+03 6.5717246417e+03 7.9829010000e+01 0.0000e+00 1.0000e+00
       24  1    1    2    0    0 +4.3642510206e+03 -6.4932669776e+03 -2.7695677559e+02 7.8289386726e+03 7.9829010000e+01 0.0000e+00 1.0000e+00
       22  1    1    2    0    0 +7.4446030556e+02 +4.4381914457e+03 -3.2502150357e+03 5.5511856602e+03 0.0000000000e+00 0.0000e+00 1.0000e+00
       22  1    1    2    0    0 +2.5050824369e+01 -4.1330309310e+01 +1.4434005185e+00 4.8351025577e+01 0.0000000000e+00 0.0000e+00 1.0000e+00
</event>
<event>
 6      1 +1.4834189e-01 1.02606500e+04 7.81653100e-03 6.92322400e-02
  1000022 -1    0    0    0    0 +0.0000000000e+00 +0.0000000000e+00 +4.4721471353e+01 1.0000100000e+04 1.0000000000e+04 0.0000e+00 -1.0000e+00
  1000022 -1    0    0    0    0 -0.0000000000e+00 -0.0000000000e+00 -4.4721471353e+01 1.0000100000e+04 1.0000000000e+04 0.0000e+00 -1.0000e+00
      -24  1    1    2    0    0 +7.7786961123e+02 +1.3081877202e+03 -1.2425700569e+02 1.5291333224e+03 7.9829010000e+01 0.0000e+00 -1.0000e+00
       24  1    1    2    0    0 -9.3107383330e+03 -2.5089345075e+03 -9.0727028405e+02 9.6857685656e+03 7.9829010000e+01 0.0000e+00 -1.0000e+00
       22  1    1    2    0    0 -5.1029655472e+01 -1.6081476075e+01 -5.4748328168e+00 5.3783021528e+01 0.0000000000e+00 0.0000e+00 -1.0000e+00
       22  1    1    2    0    0 +8.5838983772e+03 +1.2168282634e+03 +1.0370021226e+03 8.7315150905e+03 0.0000000000e+00 0.0000e+00 -1.0000e+00
</event>
<event>
 6      1 +1.4834189e-01 1.00309900e+04 7.81653100e-03 6.93685800e-02
  1000022 -1    0    0    0    0 +0.0000000000e+00 +0.0000000000e+00 +4.4721471353e+01 1.0000100000e+04 1.0000000000e+04 0.0000e+00 -1.0000e+00
  1000022 -1    0    0    0    0 -0.0000000000e+00 -0.0000000000e+00 -4.4721471353e+01 1.0000100000e+04 1.0000000000e+04 0.0000e+00 -1.0000e+00
      -24  1    1    2    0    0 +6.3667101708e+03 -6.0047233044e+01 +7.6707397595e+03 9.9692138706e+03 7.9829010000e+01 0.0000e+00 -1.0000e+00
       24  1    1    2    0    0 -5.6885937895e+03 -1.0635438288e+02 -6.8968162550e+03 8.9411329082e+03 7.9829010000e+01 0.0000e+00 -1.0000e+00
       22  1    1    2    0    0 -1.3840588139e+02 +1.7179723113e+02 -2.9426730071e+02 3.6778216500e+02 0.0000000000e+00 0.0000e+00 -1.0000e+00
       22  1    1    2    0    0 -5.3971049993e+02 -5.3956152038e+00 -4.7965620376e+02 7.2207105620e+02 0.0000000000e+00 0.0000e+00 -1.0000e+00
</event>
<event>
 6      1 +1.4834189e-01 1.00413800e+04 7.81653100e-03 6.93623300e-02
  1000022 -1    0    0    0    0 +0.0000000000e+00 +0.0000000000e+00 +4.4721471353e+01 1.0000100000e+04 1.0000000000e+04 0.0000e+00 1.0000e+00
  1000022 -1    0    0    0    0 -0.0000000000e+00 -0.0000000000e+00 -4.4721471353e+01 1.0000100000e+04 1.0000000000e+04 0.0000e+00 1.0000e+00
      -24  1    1    2    0    0 +8.8375683314e+03 -1.5216807650e+03 +4.0387783560e+03 9.8354577750e+03 7.9829010000e+01 0.0000e+00 1.0000e+00
       24  1    1    2    0    0 -5.9280951651e+03 +1.2903987266e+03 -2.1186198161e+03 6.4266915093e+03 7.9829010000e+01 0.0000e+00 1.0000e+00
       22  1    1    2    0    0 +1.1159837464e+02 -2.0142295542e+01 +4.8565931493e+01 1.2336352376e+02 0.0000000000e+00 0.0000e+00 -1.0000e+00
       22  1    1    2    0    0 -3.0210715410e+03 +2.5142433392e+02 -1.9687244714e+03 3.6146871920e+03 0.0000000000e+00 0.0000e+00 1.0000e+00
</event>
<event>
 6      1 +1.4834189e-01 1.00016400e+04 7.81653100e-03 6.93862700e-02
  1000022 -1    0    0    0    0 +0.0000000000e+00 +0.0000000000e+00 +4.4721471353e+01 1.0000100000e+04 1.0000000000e+04 0.0000e+00 -1.0000e+00
  1000022 -1    0    0    0    0 -0.0000000000e+00 -0.0000000000e+00 -4.4721471353e+01 1.0000100000e+04 1.0000000000e+04 0.0000e+00 -1.0000e+00
      -24  1    1    2    0    0 +7.2561992772e+03 -4.9775951235e+03 -1.1497315811e+03 8.8745217642e+03 7.9829010000e+01 0.0000e+00 -1.0000e+00
       24  1    1    2    0    0 -7.6338199075e+03 +5.4821737406e+03 +1.0996363200e+03 9.4628224124e+03 7.9829010000e+01 0.0000e+00 -1.0000e+00
       22  1    1    2    0    0 -4.8705300201e+02 +2.1256793135e+02 +8.8963905192e+01 5.3881381630e+02 0.0000000000e+00 0.0000e+00 -1.0000e+00
       22  1    1    2    0    0 +8.6467363224e+02 -7.1714654845e+02 -3.8868644054e+01 1.1240420071e+03 0.0000000000e+00 0.0000e+00 1.0000e+00
</event>
<event>
 6      1 +1.4834189e-01 1.01345700e+04 7.81653100e-03 6.93066300e-02
  1000022 -1    0    0    0    0 +0.0000000000e+00 +0.0000000000e+00 +4.4721471353e+01 1.0000100000e+04 1.0000000000e+04 0.0000e+00 1.0000e+00
  1000022 -1    0    0    0    0 -0.0000000000e+00 -0.0000000000e+00 -4.4721471353e+01 1.0000100000e+04 1.0000000000e+04 0.0000e+00 1.0000e+00
      -24  1    1    2    0    0 -8.3617742383e+03 -6.9151048030e+02 -5.1891059073e+03 9.8656296274e+03 7.9829010000e+01 0.0000e+00 -1.0000e+00
       24  1    1    2    0    0 +2.9395855205e+03 -5.5325525339e+02 +2.7241053599e+03 4.0465265464e+03 7.9829010000e+01 0.0000e+00 1.0000e+00
       22  1    1    2    0    0 +5.4096965761e+03 +1.2486387993e+03 +2.4509885593e+03 6.0688764046e+03 0.0000000000e+00 0.0000e+00 -1.0000e+00
       22  1    1    2    0    0 +1.2492141738e+01 -3.8730655706e+00 +1.4011988023e+01 1.9167421592e+01 0.0000000000e+00 0.0000e+00 -1.0000e+00
</event>
<event>
 6      1 +1.4834189e-01 1.00391300e+04 7.81653100e-03 6.93636800e-02
  1000022 -1    0    0    0    0 +0.0000000000e+00 +0.0000000000e+00 +4.4721471353e+01 1.0000100000e+04 1.0000000000e+04 0.0000e+00 1.0000e+00
  1000022 -1    0    0    0    0 -0.0000000000e+00 -0.0000000000e+00 -4.4721471353e+01 1.0000100000e+04 1.0000000000e+04 0.0000e+00 1.0000e+00
      -24  1    1    2    0    0 +1.9967103068e+03 +8.5364576458e+03 +1.8393574641e+03 8.9581007886e+03 7.9829010000e+01 0.0000e+00 -1.0000e+00
       24  1    1    2    0    0 -2.2970715352e+03 -9.4287441053e+03 -2.2447344067e+03 9.9610721445e+03 7.9829010000e+01 0.0000e+00 -1.0000e+00
       22  1    1    2    0    0 +1.1335931049e+02 +1.9563357385e+02 +2.6115741303e+02 3.4543598954e+02 0.0000000000e+00 0.0000e+00 -1.0000e+00
       22  1    1    2    0    0 +1.8700191792e+02 +6.9665288561e+02 +1.4421952956e+02 7.3559107732e+02 0.0000000000e+00 0.0000e+00 -1.0000e+00
</event>
<event>
 6      1 +1.4834189e-01 1.00091400e+04 7.81653100e-03 6.93817400e-02
  1000022 -1    0    0    0    0 +0.0000000000e+00 +0.0000000000e+00 +4.4721471353e+01 1.0000100000e+04 1.0000000000e+04 0.0000e+00 -1.0000e+00
  1000022 -1    0    0    0    0 -0.0000000000e+00 -0.0000000000e+00 -4.4721471353e+01 1.0000100000e+04 1.0000000000e+04 0.0000e+00 -1.0000e+00
      -24  1    1    2    0    0 -9.4166490061e+03 -2.3164133488e+03 +2.4032976541e+03 9.9910590826e+03 7.9829010000e+01 0.0000e+00 1.0000e+00
       24  1    1    2    0    0 +7.9484071869e+03 +1.8995526153e+03 -2.0490489164e+03 8.4255831299e+03 7.9829010000e+01 0.0000e+00 1.0000e+00
       22  1    1    2    0    0 +1.3183040542e+03 +3.2088755514e+02 -3.6554960457e+02 1.4051764714e+03 0.0000000000e+00 0.0000e+00 1.0000e+00
       22  1    1    2    0    0 +1.4993776505e+02 +9.5973178347e+01 +1.1300866878e+01 1.7838131612e+02 0.0000000000e+00 0.0000e+00 1.0000e+00
</event>
<event>
 6      1 +1.4834189e-01 1.00060900e+04 7.81653100e-03 6.93835800e-02
  1000022 -1    0    0    0    0 +0.0000000000e+00 +0.0000000000e+00 +4.4721471353e+01 1.0000100000e+04 1.0000000000e+04 0.0000e+00 1.0000e+00
  1000022 -1    0    0    0    0 -0.0000000000e+00 -0.0000000000e+00 -4.4721471353e+01 1.0000100000e+04 1.0000000000e+04 0.0000e+00 1.0000e+00
      -24  1    1    2    0    0 -7.0369359064e+03 -2.7875369817e+03 +3.9939897438e+03 8.5584552414e+03 7.9829010000e+01 0.0000e+00 1.0000e+00
       24  1    1    2    0    0 +8.2614199110e+03 +3.0057796989e+03 -4.2991733805e+03 9.7864720390e+03 7.9829010000e+01 0.0000e+00 1.0000e+00
       22  1    1    2    0    0 +1.8921776831e+02 +2.6960515195e+00 +8.5456864070e+01 2.0763792562e+02 0.0000000000e+00 0.0000e+00 -1.0000e+00
       22  1    1    2    0    0 -1.4137017729e+03 -2.2093876873e+02 +2.1972677260e+02 1.4476347940e+03 0.0000000000e+00 0.0000e+00 1.0000e+00
</event>
<event>
 6      1 +1.4834189e-01 1.00010300e+04 7.81653100e-03 6.93866400e-02
  1000022 -1    0    0    0    0 +0.0000000000e+00 +0.0000000000e+00 +4.4721471353e+01 1.0000100000e+04 1.0000000000e+04 0.0000e+00 1.0000e+00
  1000022 -1    0    0    0    0 -0.0000000000e+00 -0.0000000000e+00 -4.4721471353e+01 1.0000100000e+04 1.0000000000e+04 0.0000e+00 1.0000e+00
      -24  1    1    2    0    0 +2.5805415207e+03 -7.9107273914e+03 +4.4142671941e+03 9.4197096522e+03 7.9829010000e+01 0.0000e+00 1.0000e+00
       24  1    1    2    0    0 -9.2668504153e+02 +2.5785350768e+03 -1.5132176660e+03 3.1311002354e+03 7.9829010000e+01 0.0000e+00 1.0000e+00
       22  1    1    2    0    0 -1.8351625822e+03 +5.8254775339e+03 -3.1451336597e+03 6.8699254682e+03 0.0000000000e+00 0.0000e+00 1.0000e+00
       22  1    1    2    0    0 +1.8130610297e+02 -4.9328521936e+02 +2.4408413151e+02 5.7946464419e+02 0.0000000000e+00 0.0000e+00 1.0000e+00
</event>
<event>
 6      1 +1.4834189e-01 8.33353900e+03 7.81653100e-03 7.05060100e-02
  1000022 -1    0    0    0    0 +0.0000000000e+00 +0.0000000000e+00 +4.4721471353e+01 1.0000100000e+04 1.0000000000e+04 0.0000e+00 1.0000e+00
  1000022 -1    0    0    0    0 -0.0000000000e+00 -0.0000000000e+00 -4.4721471353e+01 1.0000100000e+04 1.0000000000e+04 0.0000e+00 1.0000e+00
      -24  1    1    2    0    0 -2.3595397702e+03 +1.0986481300e+03 +1.3666365527e+03 2.9408372581e+03 7.9829010000e+01 0.0000e+00 -1.0000e+00
       24  1    1    2    0    0 +2.4325736227e+03 -7.8232403981e+03 +3.2230713243e+03 8.8042640912e+03 7.9829010000e+01 0.0000e+00 1.0000e+00
       22  1    1    2    0    0 -1.0230387714e+02 +3.1526861408e+01 +4.2693384361e+01 1.1525081924e+02 0.0000000000e+00 0.0000e+00 1.0000e+00
       22  1    1    2    0    0 +2.9270024706e+01 +6.6930654067e+03 -4.6324012613e+03 8.1398478314e+03 0.0000000000e+00 0.0000e+00 1.0000e+00
</event>
<event>
 6      1 +1.4834189e-01 1.00009800e+04 7.81653100e-03 6.93866600e-02
  1000022 -1    0    0    0    0 +0.0000000000e+00 +0.0000000000e+00 +4.4721471353e+01 1.0000100000e+04 1.0000000000e+04 0.0000e+00 1.0000e+00
  1000022 -1    0    0    0    0 -0.0000000000e+00 -0.0000000000e+00 -4.4721471353e+01 1.0000100000e+04 1.0000000000e+04 0.0000e+00 1.0000e+00
      -24  1    1    2    0    0 -9.4056946480e+03 +2.2906267295e+03 -8.5745083429e+02 9.7188300340e+03 7.9829010000e+01 0.0000e+00 1.0000e+00
       24  1    1    2    0    0 +9.6572427026e+03 -2.3824456711e+03 +8.9867857561e+02 9.9876113184e+03 7.9829010000e+01 0.0000e+00 1.0000e+00
       22  1    1    2    0    0 -2.6130845148e+02 +9.5993361907e+01 -4.5933783686e+01 2.8214667254e+02 0.0000000000e+00 0.0000e+00 -1.0000e+00
       22  1    1    2    0    0 +9.7603968195e+00 -4.1744203330e+00 +4.7060423613e+00 1.1611975108e+01 0.0000000000e+00 0.0000e+00 -1.0000e+00
</event>
<event>
 6      1 +1.4834189e-01 1.00027700e+04 7.81653100e-03 6.93855800e-02
  1000022 -1    0    0    0    0 +0.0000000000e+00 +0.0000000000e+00 +4.4721471353e+01 1.0000100000e+04 1.0000000000e+04 0.0000e+00 1.0000e+00
  1000022 -1    0    0    0    0 -0.0000000000e+00 -0.0000000000e+00 -4.4721471353e+01 1.0000100000e+04 1.0000000000e+04 0.0000e+00 1.0000e+00
      -24  1    1    2    0    0 -9.7277893084e+03 +4.8210682738e+02 +3.1359392590e+01 9.7401061546e+03 7.9829010000e+01 0.0000e+00 -1.0000e+00
       24  1    1    2    0    0 +9.8941365655e+03 -4.7364865759e+02 -1.9713037069e+01 9.9058085335e+03 7.9829010000e+01 0.0000e+00 -1.0000e+00
       22  1    1    2    0    0 +8.8374166813e+01 -3.9019615431e+01 +8.3118637121e+00 9.6961903996e+01 0.0000000000e+00 0.0000e+00 -1.0000e+00
       22  1    1    2    0    0 -2.5472142389e+02 +3.0561445639e+01 -1.9958219233e+01 2.5732340792e+02 0.0000000000e+00 0.0000e+00 -1.0000e+00
</event>
<event>
 6      1 +1.4834189e-01 1.00750200e+04 7.81653100e-03 6.93421500e-02
  1000022 -1    0    0    0    0 +0.0000000000e+00 +0.0000000000e+00 +4.4721471353e+01 1.0000100000e+04 1.0000000000e+04 0.0000e+00 -1.0000e+00
  1000022 -1    0    0    0    0 -0.0000000000e+00 -0.0000000000e+00 -4.4721471353e+01 1.0000100000e+04 1.0000000000e+04 0.0000e+00 -1.0000e+00
      -24  1    1    2    0    0 -3.2762544106e+03 +1.6173314922e+03 +7.4212208882e+03 8.2722727385e+03 7.9829010000e+01 0.0000e+00 -1.0000e+00
       24  1    1    2    0    0 +1.3656846480e+03 -2.7755201175e+02 -4.5012032545e+03 4.7126779103e+03 7.9829010000e+01 0.0000e+00 -1.0000e+00
       22  1    1    2    0    0 -6.3297348961e+02 +3.6142032171e+02 +1.4835116400e+03 1.6529025602e+03 0.0000000000e+00 0.0000e+00 -1.0000e+00
       22  1    1    2    0    0 +2.5435432522e+03 -1.7011998022e+03 -4.4035292737e+03 5.3623467910e+03 0.0000000000e+00 0.0000e+00 1.0000e+00
</event>
<event>
 6      1 +1.4834189e-01 1.00896300e+04 7.81653100e-03 6.93334100e-02
  1000022 -1    0    0    0    0 +0.0000000000e+00 +0.0000000000e+00 +4.4721471353e+01 1.0000100000e+04 1.0000000000e+04 0.0000e+00 1.0000e+00
  1000022 -1    0    0    0    0 -0.0000000000e+00 -0.0000000000e+00 -4.4721471353e+01 1.0000100000e+04 1.0000000000e+04 0.0000e+00 1.0000e+00
      -24  1    1    2    0    0 +4.0248014714e+03 +2.7963855335e+03 -7.6122952923e+03 9.0538506297e+03 7.9829010000e+01 0.0000e+00 1.0000e+00
       24  1    1    2    0    0 -3.8695348796e+03 -3.0698543655e+03 +8.5916027063e+03 9.9105658639e+03 7.9829010000e+01 0.0000e+00 1.0000e+00
       22  1    1    2    0    0 +1.9331639707e+01 +2.7483445734e+01 -6.8000611954e+01 7.5849425240e+01 0.0000000000e+00 0.0000e+00 -1.0000e+00
       22  1    1    2    0    0 -1.7459823151e+02 +2.4598538625e+02 -9.1130680201e+02 9.5993408111e+02 0.0000000000e+00 0.0000e+00 1.0000e+00
</event>
<event>
 6      1 +1.4834189e-01 1.00718700e+04 7.81653100e-03 6.93440400e-02
  1000022 -1    0    0    0    0 +0.0000000000e+00 +0.0000000000e+00 +4.4721471353e+01 1.0000100000e+04 1.0000000000e+04 0.0000e+00 1.0000e+00
  1000022 -1    0    0    0    0 -0.0000000000e+00 -0.0000000000e+00 -4.4721471353e+01 1.0000100000e+04 1.0000000000e+04 0.0000e+00 1.0000e+00
      -24  1    1    2    0    0 -3.9546789682e+03 +5.9151131717e+03 +1.0698473603e+03 7.1957623377e+03 7.9829010000e+01 0.0000e+00 -1.0000e+00
       24  1    1    2    0    0 +5.4818936005e+03 -8.2071003970e+03 -1.0759498348e+03 9.9283279102e+03 7.9829010000e+01 0.0000e+00 -1.0000e+00
       22  1    1    2    0    0 -2.5521232873e+02 +2.7985777790e+02 -2.9036230351e+02 4.7724624240e+02 0.0000000000e+00 0.0000e+00 -1.0000e+00
       22  1    1    2    0    0 -1.2720023036e+03 +2.0121294475e+03 +2.9646477803e+02 2.3988635097e+03 0.0000000000e+00 0.0000e+00 -1.0000e+00
</event>
<event>
 6      1 +1.4834189e-01 1.00191600e+04 7.81653100e-03 6.93757000e-02
  1000022 -1    0    0    0    0 +0.0000000000e+00 +0.0000000000e+00 +4.4721471353e+01 1.0000100000e+04 1.0000000000e+04 0.0000e+00 -1.0000e+00
  1000022 -1    0    0    0    0 -0.0000000000e+00 -0.0000000000e+00 -4.4721471353e+01 1.0000100000e+04 1.0000000000e+04 0.0000e+00 -1.0000e+00
      -24  1    1    2    0    0 -6.8558380596e+03 +7.1263201860e+03 +1.2248989098e+02 9.8898094692e+03 7.9829010000e+01 0.0000e+00 1.0000e+00
       24  1    1    2    0    0 +4.7290847779e+03 -4.5890592043e+03 -4.3061349857e+02 6.6042038031e+03 7.9829010000e+01 0.0000e+00 1.0000e+00
       22  1    1    2    0    0 +2.1921962601e+03 -2.6007035570e+03 +3.0419978737e+02 3.4149554822e+03 0.0000000000e+00 0.0000e+00 1.0000e+00
       22  1    1    2    0    0 -6.5442978438e+01 +6.3442575395e+01 +3.9238202202e+00 9.1231245550e+01 0.0000000000e+00 0.0000e+00 -1.0000e+00
</event>
<event>
 6      1 +1.4834189e-01 9.00151300e+03 7.81653100e-03 7.00283900e-02
  1000022 -1    0    0    0    0 +0.0000000000e+00 +0.0000000000e+00 +4.4721471353e+01 1.0000100000e+04 1.0000000000e+04 0.0000e+00 1.0000e+00
  1000022 -1    0    0    0    0 -0.0000000000e+00 -0.0000000000e+00 -4.4721471353e+01 1.0000100000e+04 1.0000000000e+04 0.0000e+00 1.0000e+00
      -24  1    1    2    0    0 +2.2013297063e+03 +5.4512434477e+02 -8.1788213551e+03 8.4877856039e+03 7.9829010000e+01 0.0000e+00 -1.0000e+00
       24  1    1    2    0    0 +1.4143594595e+03 +1.9307822390e+02 +1.2618596330e+03 1.9069227266e+03 7.9829010000e+01 0.0000e+00 1.0000e+00
       22  1    1    2    0    0 -3.8049559318e+03 -9.2624522717e+02 +7.7757582241e+03 8.7062067414e+03 0.0000000000e+00 0.0000e+00 -1.0000e+00
       22  1    1    2    0    0 +1.8926676602e+02 +1.8804265850e+02 -8.5879650195e+02 8.9928492809e+02 0.0000000000e+00 0.0000e+00 -1.0000e+00
</event>
<event>
 6      1 +1.4834189e-01 1.01059700e+04 7.81653100e-03 6.93236600e-02
  1000022 -1    0    0    0    0 +0.0000000000e+00 +0.0000000000e+00 +4.4721471353e+01 1.0000100000e+04 1.0000000000e+04 0.0000e+00 -1.0000e+00
  1000022 -1    0    0    0    0 -0.0000000000e+00 -0.0000000000e+00 -4.4721471353e+01 1.0000100000e+04 1.0000000000e+04 0.0000e+00 -1.0000e+00
      -24  1    1    2    0    0 +8.7908924971e+03 +4.4252892136e+03 -1.0131200193e+03 9.8942286392e+03 7.9829010000e+01 0.0000e+00 -1.0000e+00
       24  1    1    2    0    0 -2.3058617579e+03 -2.0554197061e+03 -4.6160082650e+01 3.0903482067e+03 7.9829010000e+01 0.0000e+00 1.0000e+00
       22  1    1    2    0    0 -1.0764813784e+02 -1.3532616515e+02 -1.3604880168e+01 1.7345427443e+02 0.0000000000e+00 0.0000e+00 -1.0000e+00
       22  1    1    2    0    0 -6.3773826014e+03 -2.2345433424e+03 +1.0728849821e+03 6.8421688797e+03 0.0000000000e+00 0.0000e+00 -1.0000e+00
</event>
<event>
 6      1 +1.4834189e-01 1.00054700e+04 7.81653100e-03 6.93839500e-02
  1000022 -1    0    0    0    0 +0.0000000000e+00 +0.0000000000e+00 +4.4721471353e+01 1.0000100000e+04 1.0000000000e+04 0.0000e+00 1.0000e+00
  1000022 -1    0    0    0    0 -0.0000000000e+00 -0.0000000000e+00 -4.4721471353e+01 1.0000100000e+04 1.0000000000e+04 0.0000e+00 1.0000e+00
      -24  1    1    2    0    0 -4.2939818024e+03 +7.6821103707e+03 +4.6776759333e+03 9.9669516039e+03 7.9829010000e+01 0.0000e+00 1.0000e+00
       24  1    1    2    0    0 +1.7109820093e+03 -3.0410195009e+03 -2.0497236572e+03 4.0475917263e+03 7.9829010000e+01 0.0000e+00 1.0000e+00
       22  1    1    2    0    0 -2.9566735167e+01 +1.9189341466e+01 -1.5535236521e+01 3.8519686241e+01 0.0000000000e+00 0.0000e+00 1.0000e+00
       22  1    1    2    0    0 +2.6125665283e+03 -4.6602802113e+03 -2.6124170395e+03 5.9471369835e+03 0.0000000000e+00 0.0000e+00 1.0000e+00
</event>
<event>
 6      1 +1.4834189e-01 1.02683000e+04 7.81653100e-03 6.92277600e-02
  1000022 -1    0    0    0    0 +0.0000000000e+00 +0.0000000000e+00 +4.4721471353e+01 1.0000100000e+04 1.0000000000e+04 0.0000e+00 -1.0000e+00
  1000022 -1    0    0    0    0 -0.0000000000e+00 -0.0000000000e+00 -4.4721471353e+01 1.0000100000e+04 1.0000000000e+04 0.0000e+00 -1.0000e+00
      -24  1    1    2    0    0 -1.3844710721e+03 +9.3291079628e+03 -2.3988666272e+03 9.7319036831e+03 7.9829010000e+01 0.0000e+00 -1.0000e+00
       24  1    1    2    0    0 +6.8436112369e+02 -8.5416572269e+03 +2.9469864511e+03 9.0619733030e+03 7.9829010000e+01 0.0000e+00 -1.0000e+00
       22  1    1    2    0    0 +6.2929841869e+00 -4.2363610853e+01 +1.1777910743e+01 4.4418423610e+01 0.0000000000e+00 0.0000e+00 1.0000e+00
       22  1    1    2    0    0 +6.9381696426e+02 -7.4508712503e+02 -5.5989773467e+02 1.1619045903e+03 0.0000000000e+00 0.0000e+00 -1.0000e+00
</event>
<event>
 6      1 +1.4834189e-01 1.10981000e+04 7.81653100e-03 6.87638600e-02
  1000022 -1    0    0    0    0 +0.0000000000e+00 +0.0000000000e+00 +4.4721471353e+01 1.0000100000e+04 1.0000000000e+04 0.0000e+00 -1.0000e+00
  1000022 -1    0    0    0    0 -0.0000000000e+00 -0.0000000000e+00 -4.4721471353e+01 1.0000100000e+04 1.0000000000e+04 0.0000e+00 -1.0000e+00
      -24  1    1    2    0    0 +1.4969455279e+03 -1.2116859443e+01 -4.5308853958e+03 4.7724509293e+03 7.9829010000e+01 0.0000e+00 1.0000e+00
       24  1    1    2    0    0 -1.9681405757e+03 -9.8538221928e+02 +6.8298182698e+03 7.1761651119e+03 7.9829010000e+01 0.0000e+00 1.0000e+00
       22  1    1    2    0    0 +9.4379972740e+02 +3.7297649008e+03 +7.6135706714e+02 3.9219343090e+03 0.0000000000e+00 0.0000e+00 1.0000e+00
       22  1    1    2    0    0 -4.7260467966e+02 -2.7322658221e+03 -3.0602899412e+03 4.1296496498e+03 0.0000000000e+00 0.0000e+00 1.0000e+00
</event>
<event>
 6      1 +1.4834189e-01 1.00092500e+04 7.81653100e-03 6.93816700e-02
  1000022 -1    0    0    0    0 +0.0000000000e+00 +0.0000000000e+00 +4.4721471353e+01 1.0000100000e+04 1.0000000000e+04 0.0000e+00 1.0000e+00
  1000022 -1    0    0    0    0 -0.0000000000e+00 -0.0000000000e+00 -4.4721471353e+01 1.0000100000e+04 1.0000000000e+04 0.0000e+00 1.0000e+00
      -24  1    1    2    0    0 -1.3993109542e+03 +7.5388714719e+03 +6.4046827129e+03 9.9909452776e+03 7.9829010000e+01 0.0000e+00 -1.0000e+00
       24  1    1    2    0    0 +7.2980881597e+02 -4.7537401147e+03 -4.2134370818e+03 6.3945360034e+03 7.9829010000e+01 0.0000e+00 -1.0000e+00
       22  1    1    2    0    0 +6.8593428982e+02 -2.7643010783e+03 -2.1672207437e+03 3.5789261034e+03 0.0000000000e+00 0.0000e+00 -1.0000e+00
       22  1    1    2    0    0 -1.6432151575e+01 -2.0830278843e+01 -2.4024887318e+01 3.5792615617e+01 0.0000000000e+00 0.0000e+00 1.0000e+00
</event>
<event>
 6      1 +1.4834189e-01 1.00712300e+04 7.81653100e-03 6.93444200e-02
  1000022 -1    0    0    0    0 +0.0000000000e+00 +0.0000000000e+00 +4.4721471353e+01 1.0000100000e+04 1.0000000000e+04 0.0000e+00 1.0000e+00
  1000022 -1    0    0    0    0 -0.0000000000e+00 -0.0000000000e+00 -4.4721471353e+01 1.0000100000e+04 1.0000000000e+04 0.0000e+00 1.0000e+00
      -24  1    1    2    0    0 +6.1673000021e+03 -7.7725042863e+03 +3.6142021273e+02 9.9289681961e+03 7.9829010000e+01 0.0000e+00 -1.0000e+00
       24  1    1    2    0    0 -2.4952813408e+02 +1.4703970371e+02 +2.2713289646e+02 3.7662579261e+02 7.9829010000e+01 0.0000e+00 -1.0000e+00
       22  1    1    2    0    0 -1.3542018560e+01 -1.0665082880e+01 +1.5582358712e+01 2.3236612545e+01 0.0000000000e+00 0.0000e+00 1.0000e+00
       22  1    1    2    0    0 -5.9042298495e+03 +7.6361296655e+03 -6.0413546790e+02 9.6713693988e+03 0.0000000000e+00 0.0000e+00 -1.0000e+00
</event>
<event>
 6      1 +1.4834189e-01 1.07851000e+04 7.81653100e-03 6.89339000e-02
  1000022 -1    0    0    0    0 +0.0000000000e+00 +0.0000000000e+00 +4.4721471353e+01 1.0000100000e+04 1.0000000000e+04 0.0000e+00 -1.0000e+00
  1000022 -1    0    0    0    0 -0.0000000000e+00 -0.0000000000e+00 -4.4721471353e+01 1.0000100000e+04 1.0000000000e+04 0.0000e+00 -1.0000e+00
      -24  1    1    2    0    0 -6.1188324323e+03 +3.2107037923e+03 +8.9180522134e+02 6.9678130285e+03 7.9829010000e+01 0.0000e+00 1.0000e+00
       24  1    1    2    0    0 +9.0527267584e+03 -1.3744630586e+03 +6.6361023289e+02 9.1808366543e+03 7.9829010000e+01 0.0000e+00 1.0000e+00
       22  1    1    2    0    0 +2.9313548240e+01 -1.1527751968e+01 +1.3492843994e+01 3.4267039774e+01 0.0000000000e+00 0.0000e+00 -1.0000e+00
       22  1    1    2    0    0 -2.9632078743e+03 -1.8247129817e+03 -1.5689082982e+03 3.8172832775e+03 0.0000000000e+00 0.0000e+00 1.0000e+00
</event>
<event>
 6      1 +1.4834189e-01 1.00785600e+04 7.81653100e-03 6.93400400e-02
  1000022 -1    0    0    0    0 +0.0000000000e+00 +0.0000000000e+00 +4.4721471353e+01 1.0000100000e+04 1.0000000000e+04 0.0000e+00 -1.0000e+00
  1000022 -1    0    0    0    0 -0.0000000000e+00 -0.0000000000e+00 -4.4721471353e+01 1.0000100000e+04 1.0000000000e+04 0.0000e+00 -1.0000e+00
      -24  1    1    2    0    0 -2.1334879345e+03 +5.7211534167e+02 +7.7664127143e+03 8.0748142920e+03 7.9829010000e+01 0.0000e+00 -1.0000e+00
       24  1    1    2    0    0 +1.1255637715e+03 -1.4577711274e+02 -6.0010279909e+03 6.1079337250e+03 7.9829010000e+01 0.0000e+00 -1.0000e+00
       22  1    1    2    0    0 +8.2940929358e+01 -5.2021177892e+02 +1.9332588152e+03 2.0037437808e+03 0.0000000000e+00 0.0000e+00 1.0000e+00
       22  1    1    2    0    0 +9.2498323361e+02 +9.3873550002e+01 -3.6986435386e+03 3.8137082022e+03 0.0000000000e+00 0.0000e+00 1.0000e+00
</event>
<event>
 6      1 +1.4834189e-01 1.14648800e+04 7.81653100e-03 6.85716300e-02
  1000022 -1    0    0    0    0 +0.0000000000e+00 +0.0000000000e+00 +4.4721471353e+01 1.0000100000e+04 1.0000000000e+04 0.0000e+00 -1.0000e+00
  1000022 -1    0    0    0    0 -0.0000000000e+00 -0.0000000000e+00 -4.4721471353e+01 1.0000100000e+04 1.0000000000e+04 0.0000e+00 -1.0000e+00
      -24  1    1    2    0    0 -5.1850725582e+02 -4.3086812904e+03 +7.3021706789e+03 8.4948015593e+03 7.9829010000e+01 0.0000e+00 -1.0000e+00
       24  1    1    2    0    0 +3.3040409202e+03 +3.1912738820e+03 -7.1371809998e+03 8.4880292581e+03 7.9829010000e+01 0.0000e+00 -1.0000e+00
       22  1    1    2    0    0 -3.4075193899e+01 -3.4249847181e+00 +2.1658340530e+01 4.0520773365e+01 0.0000000000e+00 0.0000e+00 -1.0000e+00
       22  1    1    2    0    0 -2.7514584705e+03 +1.1208323931e+03 -1.8664801965e+02 2.9768484092e+03 0.0000000000e+00 0.0000e+00 -1.0000e+00
</event>
<event>
 6      1 +1.4834189e-01 9.74252800e+03 7.81653100e-03 6.95451200e-02
  1000022 -1    0    0    0    0 +0.0000000000e+00 +0.0000000000e+00 +4.4721471353e+01 1.0000100000e+04 1.0000000000e+04 0.0000e+00 -1.0000e+00
  1000022 -1    0    0    0    0 -0.0000000000e+00 -0.0000000000e+00 -4.4721471353e+01 1.0000100000e+04 1.0000000000e+04 0.0000e+00 -1.0000e+00
      -24  1    1    2    0    0 +2.4023076508e+02 +7.1240593787e+01 +6.7144764319e+01 2.7141689871e+02 7.9829010000e+01 0.0000e+00 1.0000e+00
       24  1    1    2    0    0 -5.4589789783e+03 -6.9998101198e+03 +4.1578522540e+03 9.8026476646e+03 7.9829010000e+01 0.0000e+00 1.0000e+00
       22  1    1    2    0    0 +1.1646369658e+02 -1.1137755292e+01 +2.0812221218e+02 2.3875237677e+02 0.0000000000e+00 0.0000e+00 1.0000e+00
       22  1    1    2    0    0 +5.1022845166e+03 +6.9397072813e+03 -4.4331192305e+03 9.6873830600e+03 0.0000000000e+00 0.0000e+00 1.0000e+00
</event>
<event>
 6      1 +1.4834189e-01 9.73786400e+03 7.81653100e-03 6.95480300e-02
  1000022 -1    0    0    0    0 +0.0000000000e+00 +0.0000000000e+00 +4.4721471353e+01 1.0000100000e+04 1.0000000000e+04 0.0000e+00 1.0000e+00
  1000022 -1    0    0    0    0 -0.0000000000e+00 -0.0000000000e+00 -4.4721471353e+01 1.0000100000e+04 1.0000000000e+04 0.0000e+00 1.0000e+00
      -24  1    1    2    0    0 +2.1971628909e+01 +1.9566246046e+02 +1.4291206947e+00 2.1246473621e+02 7.9829010000e+01 0.0000e+00 1.0000e+00
       24  1    1    2    0    0 -4.9753372944e+02 -2.1151913093e+01 +3.0025491205e+02 5.8695221135e+02 7.9829010000e+01 0.0000e+00 1.0000e+00
       22  1    1    2    0    0 +3.2121126455e+03 -7.1024179859e+03 -5.9881325546e+03 9.8295340879e+03 0.0000000000e+00 0.0000e+00 1.0000e+00
       22  1    1    2    0    0 -2.7365505450e+03 +6.9279074386e+03 +5.6864485219e+03 9.3712489645e+03 0.0000000000e+00 0.0000e+00 1.0000e+00
</event>
<event>
 6      1 +1.4834189e-01 1.00207000e+04 7.81653100e-03 6.93747700e-02
  1000022 -1    0    0    0    0 +0.0000000000e+00 +0.0000000000e+00 +4.4721471353e+01 1.0000100000e+04 1.0000000000e+04 0.0000e+00 -1.0000e+00
  1000022 -1    0    0    0    0 -0.0000000000e+00 -0.0000000000e+00 -4.4721471353e+01 1.0000100000e+04 1.0000000000e+04 0.0000e+00 -1.0000e+00
      -24  1    1    2    0    0 -2.7209113402e+03 +7.3384625680e+03 +2.7028569744e+03 8.2805917590e+03 7.9829010000e+01 0.0000e+00 1.0000e+00
       24  1    1    2    0    0 +2.9330846600e+03 -8.5694192035e+03 -2.9649182241e+03 9.5307420412e+03 7.9829010000e+01 0.0000e+00 1.0000e+00
       22  1    1    2    0    0 -5.5460143596e+02 +1.5588032456e+03 +3.8581344317e+02 1.6989121002e+03 0.0000000000e+00 0.0000e+00 1.0000e+00
       22  1    1    2    0    0 +3.4242811613e+02 -3.2784661005e+02 -1.2375219341e+02 4.8995409970e+02 0.0000000000e+00 0.0000e+00 1.0000e+00
</event>
<event>
 6      1 +1.4834189e-01 1.00160000e+04 7.81653100e-03 6.93776000e-02
  1000022 -1    0    0    0    0 +0.0000000000e+00 +0.0000000000e+00 +4.4721471353e+01 1.0000100000e+04 1.0000000000e+04 0.0000e+00 1.0000e+00
  1000022 -1    0    0    0    0 -0.0000000000e+00 -0.0000000000e+00 -4.4721471353e+01 1.0000100000e+04 1.0000000000e+04 0.0000e+00 1.0000e+00
      -24  1    1    2    0    0 -2.8175144339e+03 -9.2175923623e+03 -2.3109503358e+03 9.9120765064e+03 7.9829010000e+01 0.0000e+00 -1.0000e+00
       24  1    1    2    0    0 +2.5736803945e+03 +8.2917403276e+03 +1.8248020090e+03 8.8720382932e+03 7.9829010000e+01 0.0000e+00 -1.0000e+00
       22  1    1    2    0    0 -2.4978152715e+01 -6.5222926005e+01 -1.7994339312e+01 7.2123050663e+01 0.0000000000e+00 0.0000e+00 -1.0000e+00
       22  1    1    2    0    0 +2.6881219211e+02 +9.9107496071e+02 +5.0414266609e+02 1.1439621498e+03 0.0000000000e+00 0.0000e+00 1.0000e+00
</event>
<event>
 6      1 +1.4834189e-01 1.00487600e+04 7.81653100e-03 6.93579000e-02
  1000022 -1    0    0    0    0 +0.0000000000e+00 +0.0000000000e+00 +4.4721471353e+01 1.0000100000e+04 1.0000000000e+04 0.0000e+00 -1.0000e+00
  1000022 -1    0    0    0    0 -0.0000000000e+00 -0.0000000000e+00 -4.4721471353e+01 1.0000100000e+04 1.0000000000e+04 0.0000e+00 -1.0000e+00
      -24  1    1    2    0    0 -9.8006422702e+03 +1.3484944124e+03 +1.0741418496e+03 9.9514410751e+03 7.9829010000e+01 0.0000e+00 1.0000e+00
       24  1    1    2    0    0 +9.2860769056e+03 -1.5488810849e+03 -1.0549886909e+03 9.4736281709e+03 7.9829010000e+01 0.0000e+00 1.0000e+00
       22  1    1    2    0    0 +4.8238257274e+02 +2.2691175841e+02 -1.6532433456e+01 5.3334342965e+02 0.0000000000e+00 0.0000e+00 -1.0000e+00
       22  1    1    2    0    0 +3.2182791808e+01 -2.6525085868e+01 -2.6207251927e+00 4.1787324267e+01 0.0000000000e+00 0.0000e+00 1.0000e+00
</event>
<event>
 6      1 +1.4834189e-01 1.00067300e+04 7.81653100e-03 6.93831900e-02
  1000022 -1    0    0    0    0 +0.0000000000e+00 +0.0000000000e+00 +4.4721471353e+01 1.0000100000e+04 1.0000000000e+04 0.0000e+00 1.0000e+00
  1000022 -1    0    0    0    0 -0.0000000000e+00 -0.0000000000e+00 -4.4721471353e+01 1.0000100000e+04 1.0000000000e+04 0.0000e+00 1.0000e+00
      -24  1    1    2    0    0 +5.3707202258e+03 +6.2505326915e+03 +4.3646652387e+03 9.3257959439e+03 7.9829010000e+01 0.0000e+00 -1.0000e+00
       24  1    1    2    0    0 -4.2719937231e+03 -4.3481577813e+03 -3.3248814425e+03 6.9438905333e+03 7.9829010000e+01 0.0000e+00 -1.0000e+00
       22  1    1    2    0    0 -1.5771266322e+03 -2.1780475088e+03 -1.4382971474e+03 3.0495767000e+03 0.0000000000e+00 0.0000e+00 -1.0000e+00
       22  1    1    2    0    0 +4.7840012950e+02 +2.7567259873e+02 +3.9851335115e+02 6.8093682279e+02 0.0000000000e+00 0.0000e+00 1.0000e+00
</event>
<event>
 6      1 +1.4834189e-01 1.11334100e+04 7.81653100e-03 6.87450300e-02
  1000022 -1    0    0    0    0 +0.0000000000e+00 +0.0000000000e+00 +4.4721471353e+01 1.0000100000e+04 1.0000000000e+04 0.0000e+00 -1.0000e+00
  1000022 -1    0    0    0    0 -0.0000000000e+00 -0.0000000000e+00 -4.4721471353e+01 1.0000100000e+04 1.0000000000e+04 0.0000e+00 -1.0000e+00
      -24  1    1    2    0    0 -5.0920736481e+02 -7.2234076169e+03 +3.3991749696e+03 7.9998545540e+03 7.9829010000e+01 0.0000e+00 -1.0000e+00
       24  1    1    2    0    0 +3.0696084263e+03 +7.8660032943e+03 -2.7050208147e+03 8.8667927683e+03 7.9829010000e+01 0.0000e+00 -1.0000e+00
       22  1    1    2    0    0 -2.6489209846e+03 -3.8529169400e+02 -8.6401258344e+02 2.8127832864e+03 0.0000000000e+00 0.0000e+00 1.0000e+00
       22  1    1    2    0    0 +8.8519923089e+01 -2.5730398339e+02 +1.6985842861e+02 3.2076939134e+02 0.0000000000e+00 0.0000e+00 -1.0000e+00
</event>
<event>
 6      1 +1.4834189e-01 1.00238900e+04 7.81653100e-03 6.93728500e-02
  1000022 -1    0    0    0    0 +0.0000000000e+00 +0.0000000000e+00 +4.4721471353e+01 1.0000100000e+04 1.0000000000e+04 0.0000e+00 1.0000e+00
  1000022 -1    0    0    0    0 -0.0000000000e+00 -0.0000000000e+00 -4.4721471353e+01 1.0000100000e+04 1.0000000000e+04 0.0000e+00 1.0000e+00
      -24  1    1    2    0    0 -3.8436835802e+02 -8.8232083753e+02 +1.3566158395e+03 1.6652352092e+03 7.9829010000e+01 0.0000e+00 0.0000e+00
       24  1    1    2    0    0 +2.3022615933e+03 +5.1977305011e+03 -7.7791487449e+03 9.6352653659e+03 7.9829010000e+01 0.0000e+00 -1.0000e+00
       22  1    1    2    0    0 -1.0345357092e+02 +1.7777649046e+02 -3.2972996770e+02 3.8862446333e+02 0.0000000000e+00 0.0000e+00 -1.0000e+00
       22  1    1    2    0    0 -1.8144396643e+03 -4.4931861540e+03 +6.7522628731e+03 8.3110749616e+03 0.0000000000e+00 0.0000e+00 -1.0000e+00
</event>
<event>
 6      1 +1.4834189e-01 1.00078800e+04 7.81653100e-03 6.93825000e-02
  1000022 -1    0    0    0    0 +0.0000000000e+00 +0.0000000000e+00 +4.4721471353e+01 1.0000100000e+04 1.0000000000e+04 0.0000e+00 1.0000e+00
  1000022 -1    0    0    0    0 -0.0000000000e+00 -0.0000000000e+00 -4.4721471353e+01 1.0000100000e+04 1.0000000000e+04 0.0000e+00 1.0000e+00
      -24  1    1    2    0    0 +5.3596877839e+03 -7.1272215739e+03 +1.1149734783e+03 8.9873844378e+03 7.9829010000e+01 0.0000e+00 1.0000e+00
       24  1    1    2    0    0 -1.2084147407e+03 +1.2924777322e+03 -3.0137712585e+02 1.7966540336e+03 7.9829010000e+01 0.0000e+00 1.0000e+00
       22  1    1    2    0    0 -4.7593451170e+03 +6.6262234753e+03 -9.3063344268e+02 8.2112290245e+03 0.0000000000e+00 0.0000e+00 1.0000e+00
       22  1    1    2    0    0 +6.0807207384e+02 -7.9147963362e+02 +1.1703709019e+02 1.0049325042e+03 0.0000000000e+00 0.0000e+00 1.0000e+00
</event>
<event>
 6      1 +1.4834189e-01 1.02994700e+04 7.81653100e-03 6.92095400e-02
  1000022 -1    0    0    0    0 +0.0000000000e+00 +0.0000000000e+00 +4.4721471353e+01 1.0000100000e+04 1.0000000000e+04 0.0000e+00 -1.0000e+00
  1000022 -1    0    0    0    0 -0.0000000000e+00 -0.0000000000e+00 -4.4721471353e+01 1.0000100000e+04 1.0000000000e+04 0.0000e+00 -1.0000e+00
      -24  1    1    2    0    0 +5.4323493515e+02 +2.4512701315e+02 -1.7957683300e+03 1.8937655645e+03 7.9829010000e+01 0.0000e+00 1.0000e+00
       24  1    1    2    0    0 -1.8537212138e+03 +4.7280546264e+03 +6.5624296593e+03 8.2983515588e+03 7.9829010000e+01 0.0000e+00 1.0000e+00
       22  1    1    2    0    0 -1.6375708916e+02 +1.0984777481e+03 +8.5627244088e+02 1.4023809184e+03 0.0000000000e+00 0.0000e+00 1.0000e+00
       22  1    1    2    0    0 +1.4742433678e+03 -6.0716593877e+03 -5.6229337702e+03 8.4057019583e+03 0.0000000000e+00 0.0000e+00 1.0000e+00
</event>
<event>
 6      1 +1.4834189e-01 1.00226800e+04 7.81653100e-03 6.93735800e-02
  1000022 -1    0    0    0    0 +0.0000000000e+00 +0.0000000000e+00 +4.4721471353e+01 1.0000100000e+04 1.0000000000e+04 0.0000e+00 1.0000e+00
  1000022 -1    0    0    0    0 -0.0000000000e+00 -0.0000000000e+00 -4.4721471353e+01 1.0000100000e+04 1.0000000000e+04 0.0000e+00 1.0000e+00
      -24  1    1    2    0    0 -2.0192951768e+03 -6.8320626946e+03 -6.9688526973e+03 9.9662387219e+03 7.9829010000e+01 0.0000e+00 -1.0000e+00
       24  1    1    2    0    0 +1.9971489136e+03 +6.7883000930e+03 +7.0092096809e+03 9.9601714322e+03 7.9829010000e+01 0.0000e+00 -1.0000e+00
       22  1    1    2    0    0 +2.8951737082e+01 +2.7814274455e+01 -3.9663889202e+01 5.6436345117e+01 0.0000000000e+00 0.0000e+00 1.0000e+00
       22  1    1    2    0    0 -6.8054738414e+00 +1.5948327104e+01 -6.9309443366e-01 1.7353500843e+01 0.0000000000e+00 0.0000e+00 -1.0000e+00
</event>
<event>
 6      1 +1.4834189e-01 1.01329300e+04 7.81653100e-03 6.93076100e-02
  1000022 -1    0    0    0    0 +0.0000000000e+00 +0.0000000000e+00 +4.4721471353e+01 1.0000100000e+04 1.0000000000e+04 0.0000e+00 1.0000e+00
  1000022 -1    0    0    0    0 -0.0000000000e+00 -0.0000000000e+00 -4.4721471353e+01 1.0000100000e+04 1.0000000000e+04 0.0000e+00 1.0000e+00
      -24  1    1    2    0    0 +7.1599271698e+03 -3.7926405758e+03 +4.4326895627e+03 9.2360050370e+03 7.9829010000e+01 0.0000e+00 -1.0000e+00
       24  1    1    2    0    0 -7.5084276566e+03 +3.8062195127e+03 -5.1471296710e+03 9.8672746680e+03 7.9829010000e+01 0.0000e+00 -1.0000e+00
       22  1    1    2    0    0 +1.5102938667e+02 -1.1729034156e+02 +5.2338888813e+01 1.9825806199e+02 0.0000000000e+00 0.0000e+00 1.0000e+00
       22  1    1    2    0    0 +1.9747110014e+02 +1.0371140472e+02 +6.6210121955e+02 6.9866223298e+02 0.0000000000e+00 0.0000e+00 -1.0000e+00
</event>
<event>
 6      1 +1.4834189e-01 6.48485700e+03 7.81653100e-03 7.21064500e-02
  1000022 -1    0    0    0    0 +0.0000000000e+00 +0.0000000000e+00 +4.4721471353e+01 1.0000100000e+04 1.0000000000e+04 0.0000e+00 1.0000e+00
  1000022 -1    0    0    0    0 -0.0000000000e+00 -0.0000000000e+00 -4.4721471353e+01 1.0000100000e+04 1.0000000000e+04 0.0000e+00 1.0000e+00
      -24  1    1    2    0    0 -4.2338510896e+03 +3.6060826076e+03 -1.5354015716e+03 5.7700223118e+03 7.9829010000e+01 0.0000e+00 -1.0000e+00
       24  1    1    2    0    0 +7.5947561210e+03 +1.3166433437e+03 +2.6339293411e+03 8.1460313452e+03 7.9829010000e+01 0.0000e+00 -1.0000e+00
       22  1    1    2    0    0 -2.1519152246e+01 +1.2805733189e+01 -4.2430653547e+00 2.5398116456e+01 0.0000000000e+00 0.0000e+00 -1.0000e+00
       22  1    1    2    0    0 -3.3393858792e+03 -4.9355316845e+03 -1.0942847041e+03 6.0587482265e+03 0.0000000000e+00 0.0000e+00 -1.0000e+00
</event>
<event>
 6      1 +1.4834189e-01 1.00767400e+04 7.81653100e-03 6.93411300e-02
  1000022 -1    0    0    0    0 +0.0000000000e+00 +0.0000000000e+00 +4.4721471353e+01 1.0000100000e+04 1.0000000000e+04 0.0000e+00 -1.0000e+00
  1000022 -1    0    0    0    0 -0.0000000000e+00 -0.0000000000e+00 -4.4721471353e+01 1.0000100000e+04 1.0000000000e+04 0.0000e+00 -1.0000e+00
      -24  1    1    2    0    0 -2.3087964643e+02 +3.9891086833e+02 +2.2387073859e+02 5.1858082344e+02 7.9829010000e+01 0.0000e+00 -1.0000e+00
       24  1    1    2    0    0 +6.8689228892e+03 -5.3343818069e+03 +1.9255591692e+03 8.9079673161e+03 7.9829010000e+01 0.0000e+00 1.0000e+00
       22  1    1    2    0    0 -7.3685005965e+03 +5.5684953698e+03 -2.4607813041e+03 9.5581581046e+03 0.0000000000e+00 0.0000e+00 1.0000e+00
       22  1    1    2    0    0 +7.3045735378e+02 -6.3302443131e+02 +3.1135139636e+02 1.0154937559e+03 0.0000000000e+00 0.0000e+00 -1.0000e+00
</event>
<event>
 6      1 +1.4834189e-01 1.00294100e+04 7.81653100e-03 6.93695300e-02
  1000022 -1    0    0    0    0 +0.0000000000e+00 +0.0000000000e+00 +4.4721471353e+01 1.0000100000e+04 1.0000000000e+04 0.0000e+00 1.0000e+00
  1000022 -1    0    0    0    0 -0.0000000000e+00 -0.0000000000e+00 -4.4721471353e+01 1.0000100000e+04 1.0000000000e+04 0.0000e+00 1.0000e+00
      -24  1    1    2    0    0 -8.2690395446e+02 -5.2930330346e+03 +8.3950726722e+03 9.9590956767e+03 7.9829010000e+01 0.0000e+00 -1.0000e+00
       24  1    1    2    0    0 +1.1631808438e+02 +4.4003843705e+02 -7.0824161182e+02 8.4566102806e+02 7.9829010000e+01 0.0000e+00 -1.0000e+00
       22  1    1    2    0    0 +6.9332994684e+02 +4.9144636732e+03 -7.6573694132e+03 9.1251282698e+03 0.0000000000e+00 0.0000e+00 -1.0000e+00
       22  1    1    2    0    0 +1.7255923235e+01 -6.1469075676e+01 -2.9461647117e+01 7.0315025435e+01 0.0000000000e+00 0.0000e+00 1.0000e+00
</event>
<event>
 6      1 +1.4834189e-01 1.00410000e+04 7.81653100e-03 6.93625600e-02
  1000022 -1    0    0    0    0 +0.0000000000e+00 +0.0000000000e+00 +4.4721471353e+01 1.0000100000e+04 1.0000000000e+04 0.0000e+00 -1.0000e+00
  1000022 -1    0    0    0    0 -0.0000000000e+00 -0.0000000000e+00 -4.4721471353e+01 1.0000100000e+04 1.0000000000e+04 0.0000e+00 -1.0000e+00
      -24  1    1    2    0    0 -2.1176440394e+02 +7.4707075193e+01 -9.3506519067e+01 2.5601064393e+02 7.9829010000e+01 0.0000e+00 1.0000e+00
       24  1    1    2    0    0 +5.5749389175e+03 +2.4583051661e+03 +7.6201732570e+03 9.7568755942e+03 7.9829010000e+01 0.0000e+00 1.0000e+00
       22  1    1    2    0    0 -5.4829506578e+03 -2.5849715232e+03 -7.6812254297e+03 9.7849910471e+03 0.0000000000e+00 0.0000e+00 1.0000e+00
       22  1    1    2    0    0 +1.1977614417e+02 +5.1959281933e+01 +1.5455869173e+02 2.0232271469e+02 0.0000000000e+00 0.0000e+00 1.0000e+00
</event>
<event>
 6      1 +1.4834189e-01 1.00651100e+04 7.81653100e-03 6.93480900e-02
  1000022 -1    0    0    0    0 +0.0000000000e+00 +0.0000000000e+00 +4.4721471353e+01 1.0000100000e+04 1.0000000000e+04 0.0000e+00 1.0000e+00
  1000022 -1    0    0    0    0 -0.0000000000e+00 -0.0000000000e+00 -4.4721471353e+01 1.0000100000e+04 1.0000000000e+04 0.0000e+00 1.0000e+00
      -24  1    1    2    0    0 +3.3022828230e+03 +8.2210502277e+02 -1.8550746040e+03 3.8766742149e+03 7.9829010000e+01 0.0000e+00 -1.0000e+00
       24  1    1    2    0    0 -7.3857344350e+03 -3.6167745580e+03 +5.5417151004e+03 9.9170111562e+03 7.9829010000e+01 0.0000e+00 -1.0000e+00
       22  1    1    2    0    0 -1.1107359975e+01 -6.3497052224e+00 +1.2770290987e+01 1.8076850774e+01 0.0000000000e+00 0.0000e+00 1.0000e+00
       22  1    1    2    0    0 +4.0945589720e+03 +2.8010192404e+03 -3.6994107873e+03 6.1884377781e+03 0.0000000000e+00 0.0000e+00 -1.0000e+00
</event>
<event>
 6      1 +1.4834189e-01 1.02771900e+04 7.81653100e-03 6.92225600e-02
  1000022 -1    0    0    0    0 +0.0000000000e+00 +0.0000000000e+00 +4.4721471353e+01 1.0000100000e+04 1.0000000000e+04 0.0000e+00 1.0000e+00
  1000022 -1    0    0    0    0 -0.0000000000e+00 -0.0000000000e+00 -4.4721471353e+01 1.0000100000e+04 1.0000000000e+04 0.0000e+00 1.0000e+00
      -24  1    1    2    0    0 +6.1563357250e+03 +4.4641337554e+02 -1.0074090433e+03 6.2546782581e+03 7.9829010000e+01 0.0000e+00 -1.0000e+00
       24  1    1    2    0    0 -1.2283924658e+03 +1.1086300317e+03 +1.1881148922e+03 2.0386265634e+03 7.9829010000e+01 0.0000e+00 -1.0000e+00
       22  1    1    2    0    0 -6.7353992489e+03 -1.4321291796e+03 +3.4107506644e+03 7.6843878822e+03 0.0000000000e+00 0.0000e+00 -1.0000e+00
       22  1    1    2    0    0 +1.8074559898e+03 -1.2291422765e+02 -3.5914565133e+03 4.0225072963e+03 0.0000000000e+00 0.0000e+00 -1.0000e+00
</event>
<event>
 6      1 +1.4834189e-01 1.00120500e+04 7.81653100e-03 6.93799900e-02
  1000022 -1    0    0    0    0 +0.0000000000e+00 +0.0000000000e+00 +4.4721471353e+01 1.0000100000e+04 1.0000000000e+04 0.0000e+00 -1.0000e+00
  1000022 -1    0    0    0    0 -0.0000000000e+00 -0.0000000000e+00 -4.4721471353e+01 1.0000100000e+04 1.0000000000e+04 0.0000e+00 -1.0000e+00
      -24  1    1    2    0    0 -7.2570694022e+02 +4.5637341243e+03 +8.8545185210e+03 9.9881525134e+03 7.9829010000e+01 0.0000e+00 1.0000e+00
       24  1    1    2    0    0 +6.8798915877e+02 -3.9640235033e+03 -8.1204371759e+03 9.0628187677e+03 7.9829010000e+01 0.0000e+00 1.0000e+00
       22  1    1    2    0    0 -1.1277816814e+00 -1.0304266136e+01 -7.2821847760e+00 1.2668070383e+01 0.0000000000e+00 0.0000e+00 -1.0000e+00
       22  1    1    2    0    0 +3.8845563132e+01 -5.8940635481e+02 -7.2679916034e+02 9.3656064851e+02 0.0000000000e+00 0.0000e+00 1.0000e+00
</event>
<event>
 6      1 +1.4834189e-01 1.00024900e+04 7.81653100e-03 6.93857500e-02
  1000022 -1    0    0    0    0 +0.0000000000e+00 +0.0000000000e+00 +4.4721471353e+01 1.0000100000e+04 1.0000000000e+04 0.0000e+00 1.0000e+00
  1000022 -1    0    0    0    0 -0.0000000000e+00 -0.0000000000e+00 -4.4721471353e+01 1.0000100000e+04 1.0000000000e+04 0.0000e+00 1.0000e+00
      -24  1    1    2    0    0 -9.7140345883e+03 -2.3603953498e+03 -1.1758745832e+02 9.9977064205e+03 7.9829010000e+01 0.0000e+00 1.0000e+00
       24  1    1    2    0    0 +9.3701201688e+03 +2.2888064279e+03 +1.0968510600e+02 9.6465636543e+03 7.9829010000e+01 0.0000e+00 1.0000e+00
       22  1    1    2    0    0 +3.3483830840e+02 +6.1275115663e+01 +1.4461503036e+01 3.4070583741e+02 0.0000000000e+00 0.0000e+00 -1.0000e+00
       22  1    1    2    0    0 +9.0761110804e+00 +1.0313806235e+01 -6.5591507160e+00 1.5224087806e+01 0.0000000000e+00 0.0000e+00 -1.0000e+00
</event>
<event>
 6      1 +1.4834189e-01 1.00669800e+04 7.81653100e-03 6.93469700e-02
  1000022 -1    0    0    0    0 +0.0000000000e+00 +0.0000000000e+00 +4.4721471353e+01 1.0000100000e+04 1.0000000000e+04 0.0000e+00 -1.0000e+00
  1000022 -1    0    0    0    0 -0.0000000000e+00 -0.0000000000e+00 -4.4721471353e+01 1.0000100000e+04 1.0000000000e+04 0.0000e+00 -1.0000e+00
      -24  1    1    2    0    0 +3.1671888370e+03 +3.6534412440e+03 +8.6766185391e+03 9.9332170014e+03 7.9829010000e+01 0.0000e+00 1.0000e+00
       24  1    1    2    0    0 -4.1695761730e+02 -3.8462302612e+02 -1.1659588547e+03 1.2990847734e+03 7.9829010000e+01 0.0000e+00 1.0000e+00
       22  1    1    2    0    0 -2.7532241358e+03 -3.3860589389e+03 -7.4541673843e+03 8.6377224818e+03 0.0000000000e+00 0.0000e+00 1.0000e+00
       22  1    1    2    0    0 +2.9929160481e+00 +1.1724072099e+02 -5.6492300100e+01 1.3017574342e+02 0.0000000000e+00 0.0000e+00 -1.0000e+00
</event>
<event>
 6      1 +1.4834189e-01 1.00267800e+04 7.81653100e-03 6.93711100e-02
  1000022 -1    0    0    0    0 +0.0000000000e+00 +0.0000000000e+00 +4.4721471353e+01 1.0000100000e+04 1.0000000000e+04 0.0000e+00 1.0000e+00
  1000022 -1    0    0    0    0 -0.0000000000e+00 -0.0000000000e+00 -4.4721471353e+01 1.0000100000e+04 1.0000000000e+04 0.0000e+00 1.0000e+00
      -24  1    1    2    0    0 +8.1329936064e+03 -3.0278354047e+02 +4.2114756950e+03 9.1640691330e+03 7.9829010000e+01 0.0000e+00 -1.0000e+00
       24  1    1    2    0    0 -6.1096768003e+03 -1.1315300419e+02 -3.4669996096e+03 7.0261947859e+03 7.9829010000e+01 0.0000e+00 -1.0000e+00
       22  1    1    2    0    0 -2.7558124686e+03 +4.9217680643e+02 -1.0801676356e+03 3.0005836919e+03 0.0000000000e+00 0.0000e+00 -1.0000e+00
       22  1    1    2    0    0 +7.3249566249e+02 -7.6240261772e+01 +3.3569155024e+02 8.0935238924e+02 0.0000000000e+00 0.0000e+00 -1.0000e+00
</event>
<event>
 6      1 +1.4834189e-01 1.00021900e+04 7.81653100e-03 6.93859300e-02
  1000022 -1    0    0    0    0 +0.0000000000e+00 +0.0000000000e+00 +4.4721471353e+01 1.0000100000e+04 1.0000000000e+04 0.0000e+00 -1.0000e+00
  1000022 -1    0    0    0    0 -0.0000000000e+00 -0.0000000000e+00 -4.4721471353e+01 1.0000100000e+04 1.0000000000e+04 0.0000e+00 -1.0000e+00
      -24  1    1    2    0    0 +9.7074081860e+03 +1.2069026250e+03 -2.0648302603e+03 9.9980140183e+03 7.9829010000e+01 0.0000e+00 -1.0000e+00
       24  1    1    2    0    0 -9.5641427592e+03 -1.1904966072e+03 +2.0395281373e+03 9.8517083079e+03 7.9829010000e+01 0.0000e+00 -1.0000e+00
       22  1    1    2    0    0 -1.1438935406e+01 +7.3043991275e+00 -2.1783956044e+00 1.3745868370e+01 0.0000000000e+00 0.0000e+00 -1.0000e+00
       22  1    1    2    0    0 -1.3182649139e+02 -2.3710416862e+01 +2.7480518545e+01 1.3673180537e+02 0.0000000000e+00 0.0000e+00 -1.0000e+00
</event>
<event>
 6      1 +1.4834189e-01 1.00708500e+04 7.81653100e-03 6.93446500e-02
  1000022 -1    0    0    0    0 +0.0000000000e+00 +0.0000000000e+00 +4.4721471353e+01 1.0000100000e+04 1.0000000000e+04 0.0000e+00 -1.0000e+00
  1000022 -1    0    0    0    0 -0.0000000000e+00 -0.0000000000e+00 -4.4721471353e+01 1.0000100000e+04 1.0000000000e+04 0.0000e+00 -1.0000e+00
      -24  1    1    2    0    0 +7.7906037616e+03 -2.8777404092e+03 -5.3554360411e+03 9.8824068270e+03 7.9829010000e+01 0.0000e+00 -1.0000e+00
       24  1    1    2    0    0 -7.4332777283e+03 +2.2955231581e+03 +5.1016850526e+03 9.3035803539e+03 7.9829010000e+01 0.0000e+00 -1.0000e+00
       22  1    1    2    0    0 +1.1336715400e+01 -2.3713632916e+01 -3.8893006338e+01 4.6941702612e+01 0.0000000000e+00 0.0000e+00 -1.0000e+00
       22  1    1    2    0    0 -3.6866274869e+02 +6.0593088406e+02 +2.9264399487e+02 7.6727111653e+02 0.0000000000e+00 0.0000e+00 -1.0000e+00
</event>
<event>
 6      1 +1.4834189e-01 1.00815300e+04 7.81653100e-03 6.93382600e-02
  1000022 -1    0    0    0    0 +0.0000000000e+00 +0.0000000000e+00 +4.4721471353e+01 1.0000100000e+04 1.0000000000e+04 0.0000e+00 -1.0000e+00
  1000022 -1    0    0    0    0 -0.0000000000e+00 -0.0000000000e+00 -4.4721471353e+01 1.0000100000e+04 1.0000000000e+04 0.0000e+00 -1.0000e+00
      -24  1    1    2    0    0 +4.5918487222e+03 -8.2782506976e+03 -2.9595937132e+03 9.9186731430e+03 7.9829010000e+01 0.0000e+00 1.0000e+00
       24  1    1    2    0    0 -3.3308657483e+03 +6.9559516920e+03 +2.6932571463e+03 8.1694514688e+03 7.9829010000e+01 0.0000e+00 1.0000e+00
       22  1    1    2    0    0 +2.8265004154e+01 +1.0608662799e+02 +6.6764253253e+01 1.2849415789e+02 0.0000000000e+00 0.0000e+00 1.0000e+00
       22  1    1    2    0    0 -1.2892479781e+03 +1.2162123777e+03 +1.9957231359e+02 1.7835812303e+03 0.0000000000e+00 0.0000e+00 1.0000e+00
</event>
<event>
 6      1 +1.4834189e-01 1.00118900e+04 7.81653100e-03 6.93800800e-02
  1000022 -1    0    0    0    0 +0.0000000000e+00 +0.0000000000e+00 +4.4721471353e+01 1.0000100000e+04 1.0000000000e+04 0.0000e+00 1.0000e+00
  1000022 -1    0    0    0    0 -0.0000000000e+00 -0.0000000000e+00 -4.4721471353e+01 1.0000100000e+04 1.0000000000e+04 0.0000e+00 1.0000e+00
      -24  1    1    2    0    0 +4.9386188528e+03 +8.3238081069e+03 +2.4666311837e+03 9.9883121518e+03 7.9829010000e+01 0.0000e+00 -1.0000e+00
       24  1    1    2    0    0 -4.7458097568e+03 -8.1880860728e+03 -2.3939269066e+03 9.7624137634e+03 7.9829010000e+01 0.0000e+00 -1.0000e+00
       22  1    1    2    0    0 -4.1850283575e+00 -1.1422853239e+01 +1.3245904607e-03 1.2165362314e+01 0.0000000000e+00 0.0000e+00 1.0000e+00
       22  1    1    2    0    0 -1.8862406762e+02 -1.2429918086e+02 -7.2705601701e+01 2.3730872248e+02 0.0000000000e+00 0.0000e+00 -1.0000e+00
</event>
<event>
 6      1 +1.4834189e-01 1.00111300e+04 7.81653100e-03 6.93805400e-02
  1000022 -1    0    0    0    0 +0.0000000000e+00 +0.0000000000e+00 +4.4721471353e+01 1.0000100000e+04 1.0000000000e+04 0.0000e+00 1.0000e+00
  1000022 -1    0    0    0    0 -0.0000000000e+00 -0.0000000000e+00 -4.4721471353e+01 1.0000100000e+04 1.0000000000e+04 0.0000e+00 1.0000e+00
      -24  1    1    2    0    0 -2.6509063441e+03 -3.0361151938e+03 -5.7205650157e+03 6.9983238483e+03 7.9829010000e+01 0.0000e+00 -1.0000e+00
       24  1    1    2    0    0 +3.8266690775e+03 +4.6535264031e+03 +7.8598755776e+03 9.9036720958e+03 7.9829010000e+01 0.0000e+00 -1.0000e+00
       22  1    1    2    0    0 -1.2113218990e+03 -1.6536850327e+03 -2.2079526552e+03 3.0128109562e+03 0.0000000000e+00 0.0000e+00 -1.0000e+00
       22  1    1    2    0    0 +3.5559165653e+01 +3.6273823309e+01 +6.8642093261e+01 8.5393099760e+01 0.0000000000e+00 0.0000e+00 1.0000e+00
</event>
<event>
 6      1 +1.4834189e-01 9.08809400e+03 7.81653100e-03 6.99695500e-02
  1000022 -1    0    0    0    0 +0.0000000000e+00 +0.0000000000e+00 +4.4721471353e+01 1.0000100000e+04 1.0000000000e+04 0.0000e+00 1.0000e+00
  1000022 -1    0    0    0    0 -0.0000000000e+00 -0.0000000000e+00 -4.4721471353e+01 1.0000100000e+04 1.0000000000e+04 0.0000e+00 1.0000e+00
      -24  1    1    2    0    0 -8.6548665506e+03 +3.1591529792e+03 -1.9843697324e+03 9.4250229952e+03 7.9829010000e+01 0.0000e+00 1.0000e+00
       24  1    1    2    0    0 +2.3549027810e+02 -8.1011375276e+02 +1.5214980801e+03 1.7415708547e+03 7.9829010000e+01 0.0000e+00 -1.0000e+00
       22  1    1    2    0    0 +8.4556445146e+03 -2.3663168462e+03 +4.6870108859e+02 8.7930120143e+03 0.0000000000e+00 0.0000e+00 1.0000e+00
       22  1    1    2    0    0 -3.6268242129e+01 +1.7277619743e+01 -5.8294362920e+00 4.0594135766e+01 0.0000000000e+00 0.0000e+00 -1.0000e+00
</event>
<event>
 6      1 +1.4834189e-01 1.00062900e+04 7.81653100e-03 6.93834600e-02
  1000022 -1    0    0    0    0 +0.0000000000e+00 +0.0000000000e+00 +4.4721471353e+01 1.0000100000e+04 1.0000000000e+04 0.0000e+00 -1.0000e+00
  1000022 -1    0    0    0    0 -0.0000000000e+00 -0.0000000000e+00 -4.4721471353e+01 1.0000100000e+04 1.0000000000e+04 0.0000e+00 -1.0000e+00
      -24  1    1    2    0    0 -2.1993712344e+03 -9.6339228887e+03 -1.1567437026e+03 9.9495795246e+03 7.9829010000e+01 0.0000e+00 1.0000e+00
       24  1    1    2    0    0 +6.6744396627e+02 +2.2450706347e+03 +4.5147673372e+02 2.3866351868e+03 7.9829010000e+01 0.0000e+00 1.0000e+00
       22  1    1    2    0    0 +3.2212258904e+01 -3.8208783501e+01 +2.6795159684e+01 5.6705567124e+01 0.0000000000e+00 0.0000e+00 -1.0000e+00
       22  1    1    2    0    0 +1.4997150092e+03 +7.4270610376e+03 +6.7847180923e+02 7.6072797215e+03 0.0000000000e+00 0.0000e+00 1.0000e+00
</event>
<event>
 6      1 +1.4834189e-01 1.07897900e+04 7.81653100e-03 6.89313100e-02
  1000022 -1    0    0    0    0 +0.0000000000e+00 +0.0000000000e+00 +4.4721471353e+01 1.0000100000e+04 1.0000000000e+04 0.0000e+00 1.0000e+00
  1000022 -1    0    0    0    0 -0.0000000000e+00 -0.0000000000e+00 -4.4721471353e+01 1.0000100000e+04 1.0000000000e+04 0.0000e+00 1.0000e+00
      -24  1    1    2    0    0 -4.6723184516e+03 -5.1707848038e+02 +5.2208312452e+03 7.0257655405e+03 7.9829010000e+01 0.0000e+00 -1.0000e+00
       24  1    1    2    0    0 +6.0608146718e+03 +3.9580544199e+03 -5.6029663026e+03 9.1541943029e+03 7.9829010000e+01 0.0000e+00 -1.0000e+00
       22  1    1    2    0    0 -1.4261125846e+03 -3.4579554080e+03 +4.2029977681e+02 3.7640277111e+03 0.0000000000e+00 0.0000e+00 1.0000e+00
       22  1    1    2    0    0 +3.7616364379e+01 +1.6979468487e+01 -3.8164719473e+01 5.6212445523e+01 0.0000000000e+00 0.0000e+00 -1.0000e+00
</event>
<event>
 6      1 +1.4834189e-01 1.00116000e+04 7.81653100e-03 6.93802500e-02
  1000022 -1    0    0    0    0 +0.0000000000e+00 +0.0000000000e+00 +4.4721471353e+01 1.0000100000e+04 1.0000000000e+04 0.0000e+00 1.0000e+00
  1000022 -1    0    0    0    0 -0.0000000000e+00 -0.0000000000e+00 -4.4721471353e+01 1.0000100000e+04 1.0000000000e+04 0.0000e+00 1.0000e+00
      -24  1    1    2    0    0 -7.0655390272e+03 -1.6460634581e+03 +6.8517688163e+03 9.9792021342e+03 7.9829010000e+01 0.0000e+00 1.0000e+00
       24  1    1    2    0    0 +2.3084413968e+03 +5.2627241307e+02 -2.2013088698e+03 3.2338827663e+03 7.9829010000e+01 0.0000e+00 0.0000e+00
       22  1    1    2    0    0 +1.5431330726e+01 -1.4279864088e+01 +2.4651383902e+01 3.2399555778e+01 0.0000000000e+00 0.0000e+00 -1.0000e+00
       22  1    1    2    0    0 +4.7416662997e+03 +1.1340709091e+03 -4.6751113304e+03 6.7547155437e+03 0.0000000000e+00 0.0000e+00 1.0000e+00
</event>
<event>
 6      1 +1.4834189e-01 1.00021800e+04 7.81653100e-03 6.93859400e-02
  1000022 -1    0    0    0    0 +0.0000000000e+00 +0.0000000000e+00 +4.4721471353e+01 1.0000100000e+04 1.0000000000e+04 0.0000e+00 -1.0000e+00
  1000022 -1    0    0    0    0 -0.0000000000e+00 -0.0000000000e+00 -4.4721471353e+01 1.0000100000e+04 1.0000000000e+04 0.0000e+00 -1.0000e+00
      -24  1    1    2    0    0 -5.0222914993e+02 +3.2530455616e+02 -8.5155561696e+02 1.0438279614e+03 7.9829010000e+01 0.0000e+00 -1.0000e+00
       24  1    1    2    0    0 +4.0905931203e+03 -2.9699998828e+03 +7.8434930331e+03 9.3316990421e+03 7.9829010000e+01 0.0000e+00 1.0000e+00
       22  1    1    2    0    0 +2.8591409613e+02 -2.1697418708e+02 +5.6139450931e+02 6.6632459305e+02 0.0000000000e+00 0.0000e+00 1.0000e+00
       22  1    1    2    0    0 -3.8742780665e+03 +2.8616695137e+03 -7.5533319255e+03 8.9583484035e+03 0.0000000000e+00 0.0000e+00 1.0000e+00
</event>
<event>
 6      1 +1.4834189e-01 1.00713300e+04 7.81653100e-03 6.93443600e-02
  1000022 -1    0    0    0    0 +0.0000000000e+00 +0.0000000000e+00 +4.4721471353e+01 1.0000100000e+04 1.0000000000e+04 0.0000e+00 1.0000e+00
  1000022 -1    0    0    0    0 -0.0000000000e+00 -0.0000000000e+00 -4.4721471353e+01 1.0000100000e+04 1.0000000000e+04 0.0000e+00 1.0000e+00
      -24  1    1    2    0    0 -6.9723459800e+03 -2.6038388739e+03 -6.5591837979e+03 9.9208291040e+03 7.9829010000e+01 0.0000e+00 1.0000e+00
       24  1    1    2    0    0 +1.1316253942e+03 +3.7100129195e+02 +9.5164201716e+02 1.5265035837e+03 7.9829010000e+01 0.0000e+00 1.0000e+00
       22  1    1    2    0    0 +4.6279422129e+01 -1.4308954198e+02 +5.8285202711e+00 1.5050041058e+02 0.0000000000e+00 0.0000e+00 1.0000e+00
       22  1    1    2    0    0 +5.7944411637e+03 +2.3759271239e+03 +5.6017132605e+03 8.4023669017e+03 0.0000000000e+00 0.0000e+00 1.0000e+00
</event>
<event>
 6      1 +1.4834189e-01 1.01718600e+04 7.81653100e-03 6.92845200e-02
  1000022 -1    0    0    0    0 +0.0000000000e+00 +0.0000000000e+00 +4.4721471353e+01 1.0000100000e+04 1.0000000000e+04 0.0000e+00 1.0000e+00
  1000022 -1    0    0    0    0 -0.0000000000e+00 -0.0000000000e+00 -4.4721471353e+01 1.0000100000e+04 1.0000000000e+04 0.0000e+00 1.0000e+00
      -24  1    1    2    0    0 -1.4241892385e+03 +4.8499351587e+03 +2.5069320629e+03 5.6428066659e+03 7.9829010000e+01 0.0000e+00 1.0000e+00
       24  1    1    2    0    0 +4.4738667432e+03 -7.6619991873e+03 -4.2270750939e+03 9.8283392139e+03 7.9829010000e+01 0.0000e+00 1.0000e+00
       22  1    1    2    0    0 -2.9728647373e+03 +2.5587882070e+03 +1.5715631557e+03 4.2255334085e+03 0.0000000000e+00 0.0000e+00 1.0000e+00
       22  1    1    2    0    0 -7.6812767477e+01 +2.5327582162e+02 +1.4857987531e+02 3.0352071167e+02 0.0000000000e+00 0.0000e+00 -1.0000e+00
</event>
<event>
 6      1 +1.4834189e-01 1.00003100e+04 7.81653100e-03 6.93870700e-02
  1000022 -1    0    0    0    0 +0.0000000000e+00 +0.0000000000e+00 +4.4721471353e+01 1.0000100000e+04 1.0000000000e+04 0.0000e+00 -1.0000e+00
  1000022 -1    0    0    0    0 -0.0000000000e+00 -0.0000000000e+00 -4.4721471353e+01 1.0000100000e+04 1.0000000000e+04 0.0000e+00 -1.0000e+00
      -24  1    1    2    0    0 -1.1493879020e+03 +4.2850870326e+03 -8.8717167178e+03 9.9195157955e+03 7.9829010000e+01 0.0000e+00 -1.0000e+00
       24  1    1    2    0    0 +3.3331792087e+02 -1.2647618607e+03 +2.6431970583e+03 2.9501841909e+03 7.9829010000e+01 0.0000e+00 0.0000e+00
       22  1    1    2    0    0 -6.2646179297e+00 +4.1338801417e+01 -6.8642866267e+01 8.0374032061e+01 0.0000000000e+00 0.0000e+00 1.0000e+00
       22  1    1    2    0    0 +8.2233459911e+02 -3.0616639734e+03 +6.2971625258e+03 7.0501259815e+03 0.0000000000e+00 0.0000e+00 -1.0000e+00
</event>
<event>
 6      1 +1.4834189e-01 1.05575400e+04 7.81653100e-03 6.90612000e-02
  1000022 -1    0    0    0    0 +0.0000000000e+00 +0.0000000000e+00 +4.4721471353e+01 1.0000100000e+04 1.0000000000e+04 0.0000e+00 1.0000e+00
  1000022 -1    0    0    0    0 -0.0000000000e+00 -0.0000000000e+00 -4.4721471353e+01 1.0000100000e+04 1.0000000000e+04 0.0000e+00 1.0000e+00
      -24  1    1    2    0    0 +4.1895317062e+03 +7.1044150230e+03 -2.9300266772e+03 8.7530747590e+03 7.9829010000e+01 0.0000e+00 1.0000e+00
       24  1    1    2    0    0 -5.2037215625e+03 -6.6688599926e+03 +1.5982654711e+03 8.6089045115e+03 7.9829010000e+01 0.0000e+00 1.0000e+00
       22  1    1    2    0    0 +3.9959836901e+02 +4.9492509858e+02 -2.6626063847e+02 6.8958279946e+02 0.0000000000e+00 0.0000e+00 -1.0000e+00
       22  1    1    2    0    0 +6.1459148730e+02 -9.3048012895e+02 +1.5980218446e+03 1.9486379301e+03 0.0000000000e+00 0.0000e+00 1.0000e+00
</event>
<event>
 6      1 +1.4834189e-01 1.00043400e+04 7.81653100e-03 6.93846300e-02
  1000022 -1    0    0    0    0 +0.0000000000e+00 +0.0000000000e+00 +4.4721471353e+01 1.0000100000e+04 1.0000000000e+04 0.0000e+00 1.0000e+00
  1000022 -1    0    0    0    0 -0.0000000000e+00 -0.0000000000e+00 -4.4721471353e+01 1.0000100000e+04 1.0000000000e+04 0.0000e+00 1.0000e+00
      -24  1    1    2    0    0 +7.4426107614e+03 +6.4872055322e+03 -1.3715334040e+03 9.9681375950e+03 7.9829010000e+01 0.0000e+00 1.0000e+00
       24  1    1    2    0    0 -7.4545482076e+03 -6.5149004651e+03 +1.3771720335e+03 9.9958587691e+03 7.9829010000e+01 0.0000e+00 1.0000e+00
       22  1    1    2    0    0 -2.3181649302e+00 +1.1129296088e+01 -8.4553198252e+00 1.4167835170e+01 0.0000000000e+00 0.0000e+00 -1.0000e+00
       22  1    1    2    0    0 +1.4255611126e+01 +1.6565636866e+01 +2.8166903133e+00 2.2035800817e+01 0.0000000000e+00 0.0000e+00 1.0000e+00
</event>
<event>
 6      1 +1.4834189e-01 1.01690300e+04 7.81653100e-03 6.92861900e-02
  1000022 -1    0    0    0    0 +0.0000000000e+00 +0.0000000000e+00 +4.4721471353e+01 1.0000100000e+04 1.0000000000e+04 0.0000e+00 1.0000e+00
  1000022 -1    0    0    0    0 -0.0000000000e+00 -0.0000000000e+00 -4.4721471353e+01 1.0000100000e+04 1.0000000000e+04 0.0000e+00 1.0000e+00
      -24  1    1    2    0    0 +3.7066409515e+03 -3.9171170499e+03 -3.8058906772e+03 6.6010733705e+03 7.9829010000e+01 0.0000e+00 -1.0000e+00
       24  1    1    2    0    0 -1.2274869046e+03 +3.1471899508e+03 +2.3350829013e+03 4.1073730673e+03 7.9829010000e+01 0.0000e+00 -1.0000e+00
       22  1    1    2    0    0 -4.2717224552e+03 +2.6664230415e+03 +3.3743587461e+03 6.0616599638e+03 0.0000000000e+00 0.0000e+00 -1.0000e+00
       22  1    1    2    0    0 +1.7925684083e+03 -1.8964959424e+03 -1.9035509702e+03 3.2300935983e+03 0.0000000000e+00 0.0000e+00 -1.0000e+00
</event>
<event>
 6      1 +1.4834189e-01 1.01214400e+04 7.81653100e-03 6.93144400e-02
  1000022 -1    0    0    0    0 +0.0000000000e+00 +0.0000000000e+00 +4.4721471353e+01 1.0000100000e+04 1.0000000000e+04 0.0000e+00 1.0000e+00
  1000022 -1    0    0    0    0 -0.0000000000e+00 -0.0000000000e+00 -4.4721471353e+01 1.0000100000e+04 1.0000000000e+04 0.0000e+00 1.0000e+00
      -24  1    1    2    0    0 -2.5513628486e+03 +1.6248466135e+03 -5.2794683652e+03 6.0851243038e+03 7.9829010000e+01 0.0000e+00 -1.0000e+00
       24  1    1    2    0    0 +4.6731992087e+03 -3.9683247938e+03 +7.7457808917e+03 9.8787593759e+03 7.9829010000e+01 0.0000e+00 -1.0000e+00
       22  1    1    2    0    0 -2.1356623267e+03 +2.3517949253e+03 -2.4410232747e+03 4.0063184561e+03 0.0000000000e+00 0.0000e+00 -1.0000e+00
       22  1    1    2    0    0 +1.3825966614e+01 -8.3167449792e+00 -2.5289251750e+01 2.9997864156e+01 0.0000000000e+00 0.0000e+00 1.0000e+00
</event>
<event>
 6      1 +1.4834189e-01 1.00004100e+04 7.81653100e-03 6.93870100e-02
  1000022 -1    0    0    0    0 +0.0000000000e+00 +0.0000000000e+00 +4.4721471353e+01 1.0000100000e+04 1.0000000000e+04 0.0000e+00 -1.0000e+00
  1000022 -1    0    0    0    0 -0.0000000000e+00 -0.0000000000e+00 -4.4721471353e+01 1.0000100000e+04 1.0000000000e+04 0.0000e+00 -1.0000e+00
      -24  1    1    2    0    0 +4.2410983718e+03 +4.3176205432e+03 -5.1578074663e+03 7.9522395012e+03 7.9829010000e+01 0.0000e+00 0.0000e+00
       24  1    1    2    0    0 -5.3385617134e+03 -5.4363576571e+03 +6.4595911727e+03 9.9893401450e+03 7.9829010000e+01 0.0000e+00 1.0000e+00
       22  1    1    2    0    0 -8.6357315537e+00 -5.8635230351e+00 +3.6935029339e+00 1.1072430888e+01 0.0000000000e+00 0.0000e+00 -1.0000e+00
       22  1    1    2    0    0 +1.1060990732e+03 +1.1246006370e+03 -1.3054772093e+03 2.0475479229e+03 0.0000000000e+00 0.0000e+00 1.0000e+00
</event>
<event>
 6      1 +1.4834189e-01 1.00033900e+04 7.81653100e-03 6.93852100e-02
  1000022 -1    0    0    0    0 +0.0000000000e+00 +0.0000000000e+00 +4.4721471353e+01 1.0000100000e+04 1.0000000000e+04 0.0000e+00 1.0000e+00
  1000022 -1    0    0    0    0 -0.0000000000e+00 -0.0000000000e+00 -4.4721471353e+01 1.0000100000e+04 1.0000000000e+04 0.0000e+00 1.0000e+00
      -24  1    1    2    0    0 -5.9012881842e+03 +6.6403954444e+03 +3.8098580768e+03 9.6665115283e+03 7.9829010000e+01 0.0000e+00 1.0000e+00
       24  1    1    2    0    0 +6.1266701906e+03 -6.8564197487e+03 -3.9221553262e+03 9.9968122154e+03 7.9829010000e+01 0.0000e+00 1.0000e+00
       22  1    1    2    0    0 -6.5452884598e+01 +7.0069993202e+01 +6.3266771019e+01 1.1487631768e+02 0.0000000000e+00 0.0000e+00 1.0000e+00
       22  1    1    2    0    0 -1.5992912180e+02 +1.4595431113e+02 +4.9030478378e+01 2.2199993862e+02 0.0000000000e+00 0.0000e+00 1.0000e+00
</event>
<event>
 6      1 +1.4834189e-01 1.01725300e+04 7.81653100e-03 6.92841200e-02
  1000022 -1    0    0    0    0 +0.0000000000e+00 +0.0000000000e+00 +4.4721471353e+01 1.0000100000e+04 1.0000000000e+04 0.0000e+00 1.0000e+00
  1000022 -1    0    0    0    0 -0.0000000000e+00 -0.0000000000e+00 -4.4721471353e+01 1.0000100000e+04 1.0000000000e+04 0.0000e+00 1.0000e+00
      -24  1    1    2    0    0 -2.4787312039e+03 +4.5796179789e+03 -3.7216277201e+03 6.4010854370e+03 7.9829010000e+01 0.0000e+00 1.0000e+00
       24  1    1    2    0    0 +3.2558402579e+03 -3.9472944014e+03 +4.6476955391e+03 6.9129642970e+03 7.9829010000e+01 0.0000e+00 1.0000e+00
       22  1    1    2    0    0 +1.4622802550e+03 -1.5969566824e+03 +1.9511514576e+03 2.9147085961e+03 0.0000000000e+00 0.0000e+00 1.0000e+00
       22  1    1    2    0    0 -2.2393893090e+03 +9.6463310484e+02 -2.8772192766e+03 3.7714416699e+03 0.0000000000e+00 0.0000e+00 1.0000e+00
</event>
<event>
 6      1 +1.4834189e-01 1.01227000e+04 7.81653100e-03 6.93136900e-02
  1000022 -1    0    0    0    0 +0.0000000000e+00 +0.0000000000e+00 +4.4721471353e+01 1.0000100000e+04 1.0000000000e+04 0.0000e+00 -1.0000e+00
  1000022 -1    0    0    0    0 -0.0000000000e+00 -0.0000000000e+00 -4.4721471353e+01 1.0000100000e+04 1.0000000000e+04 0.0000e+00 -1.0000e+00
      -24  1    1    2    0    0 -7.2702046539e+03 +4.9966160896e+03 +4.4425774602e+03 9.8774953919e+03 7.9829010000e+01 0.0000e+00 -1.0000e+00
       24  1    1    2    0    0 +1.4392501138e+03 -9.3981223527e+02 +8.1427998259e+00 1.7207925220e+03 7.9829010000e+01 0.0000e+00 -1.0000e+00
       22  1    1    2    0    0 +5.4061200338e+01 -7.7222647457e+00 +9.7233139319e+00 5.5468816362e+01 0.0000000000e+00 0.0000e+00 1.0000e+00
       22  1    1    2    0    0 +5.7768933398e+03 -4.0490815896e+03 -4.4604435740e+03 8.3464432697e+03 0.0000000000e+00 0.0000e+00 -1.0000e+00
</event>
<event>
 6      1 +1.4834189e-01 1.00999000e+04 7.81653100e-03 6.93272900e-02
  1000022 -1    0    0    0    0 +0.0000000000e+00 +0.0000000000e+00 +4.4721471353e+01 1.0000100000e+04 1.0000000000e+04 0.0000e+00 1.0000e+00
  1000022 -1    0    0    0    0 -0.0000000000e+00 -0.0000000000e+00 -4.4721471353e+01 1.0000100000e+04 1.0000000000e+04 0.0000e+00 1.0000e+00
      -24  1    1    2    0    0 +2.2690342400e+03 -1.9373409537e+03 -1.0044385267e+03 3.1491388947e+03 7.9829010000e+01 0.0000e+00 1.0000e+00
       24  1    1    2    0    0 -6.5368116835e+03 +6.2844823309e+03 +3.9730380414e+03 9.9003044954e+03 7.9829010000e+01 0.0000e+00 1.0000e+00
       22  1    1    2    0    0 +8.8013122683e+01 -7.9108693112e+02 -4.2104102520e+02 9.0046676078e+02 0.0000000000e+00 0.0000e+00 1.0000e+00
       22  1    1    2    0    0 +4.1797643208e+03 -3.5560544461e+03 -2.5475584896e+03 6.0502898491e+03 0.0000000000e+00 0.0000e+00 1.0000e+00
</event>
<event>
 6      1 +1.4834189e-01 1.00041000e+04 7.81653100e-03 6.93847800e-02
  1000022 -1    0    0    0    0 +0.0000000000e+00 +0.0000000000e+00 +4.4721471353e+01 1.0000100000e+04 1.0000000000e+04 0.0000e+00 1.0000e+00
  1000022 -1    0    0    0    0 -0.0000000000e+00 -0.0000000000e+00 -4.4721471353e+01 1.0000100000e+04 1.0000000000e+04 0.0000e+00 1.0000e+00
      -24  1    1    2    0    0 -1.2261878332e+02 -5.8612018762e+03 -7.9815932183e+03 9.9035814619e+03 7.9829010000e+01 0.0000e+00 -1.0000e+00
       24  1    1    2    0    0 +1.9494958927e+00 +3.9912224767e+02 +4.4257886187e+02 6.0129118481e+02 7.9829010000e+01 0.0000e+00 0.0000e+00
       22  1    1    2    0    0 +1.1642969692e+02 +5.5189095219e+03 +7.6118949601e+03 9.4028114449e+03 0.0000000000e+00 0.0000e+00 -1.0000e+00
       22  1    1    2    0    0 +4.2395905048e+00 -5.6829893380e+01 -7.2880603667e+01 9.2515908362e+01 0.0000000000e+00 0.0000e+00 1.0000e+00
</event>
<event>
 6      1 +1.4834189e-01 1.00037400e+04 7.81653100e-03 6.93849900e-02
  1000022 -1    0    0    0    0 +0.0000000000e+00 +0.0000000000e+00 +4.4721471353e+01 1.0000100000e+04 1.0000000000e+04 0.0000e+00 1.0000e+00
  1000022 -1    0    0    0    0 -0.0000000000e+00 -0.0000000000e+00 -4.4721471353e+01 1.0000100000e+04 1.0000000000e+04 0.0000e+00 1.0000e+00
      -24  1    1    2    0    0 -1.3515307614e+03 -1.4709055238e+03 -3.7005434625e+02 2.0331038707e+03 7.9829010000e+01 0.0000e+00 1.0000e+00
       24  1    1    2    0    0 +6.2249252049e+03 +7.4536368406e+03 +2.3202064011e+03 9.9847947587e+03 7.9829010000e+01 0.0000e+00 -1.0000e+00
       22  1    1    2    0    0 +7.9572159096e+00 +8.0619412898e+00 +2.7701651964e+00 1.1661303427e+01 0.0000000000e+00 0.0000e+00 -1.0000e+00
       22  1    1    2    0    0 -4.8813516595e+03 -5.9907932581e+03 -1.9529222200e+03 7.9706400673e+03 0.0000000000e+00 0.0000e+00 -1.0000e+00
</event>
<event>
 6      1 +1.4834189e-01 9.92789000e+03 7.81653100e-03 6.94309800e-02
  1000022 -1    0    0    0    0 +0.0000000000e+00 +0.0000000000e+00 +4.4721471353e+01 1.0000100000e+04 1.0000000000e+04 0.0000e+00 -1.0000e+00
  1000022 -1    0    0    0    0 -0.0000000000e+00 -0.0000000000e+00 -4.4721471353e+01 1.0000100000e+04 1.0000000000e+04 0.0000e+00 -1.0000e+00
      -24  1    1    2    0    0 +6.3288434215e+03 +7.5029443292e+03 -1.3116582351e+03 9.9032950404e+03 7.9829010000e+01 0.0000e+00 -1.0000e+00
       24  1    1    2    0    0 -4.9505610656e+01 +1.5722610677e+01 +1.2759013128e+02 1.5921657706e+02 7.9829010000e+01 0.0000e+00 1.0000e+00
       22  1    1    2    0    0 -6.2729535949e+03 -7.5607371619e+03 +1.1825937626e+03 9.8951109768e+03 0.0000000000e+00 0.0000e+00 -1.0000e+00
       22  1    1    2    0    0 -6.3842160251e+00 +4.2070222059e+01 +1.4743411918e+00 4.2577405749e+01 0.0000000000e+00 0.0000e+00 1.0000e+00
</event>
<event>
 6      1 +1.4834189e-01 1.18161000e+04 7.81653100e-03 6.83942100e-02
  1000022 -1    0    0    0    0 +0.0000000000e+00 +0.0000000000e+00 +4.4721471353e+01 1.0000100000e+04 1.0000000000e+04 0.0000e+00 -1.0000e+00
  1000022 -1    0    0    0    0 -0.0000000000e+00 -0.0000000000e+00 -4.4721471353e+01 1.0000100000e+04 1.0000000000e+04 0.0000e+00 -1.0000e+00
      -24  1    1    2    0    0 +4.4760760753e+03 +5.1629594249e+03 -4.5035177283e+03 8.1840974857e+03 7.9829010000e+01 0.0000e+00 1.0000e+00
       24  1    1    2    0    0 -1.1186697756e+03 -1.4938875389e+02 +4.2602093999e+02 1.2089688081e+03 7.9829010000e+01 0.0000e+00 -1.0000e+00
       22  1    1    2    0    0 -5.5874369638e+03 -1.7824471718e+03 +2.5264663162e+03 6.3858908377e+03 0.0000000000e+00 0.0000e+00 1.0000e+00
       22  1    1    2    0    0 +2.2300306641e+03 -3.2311234992e+03 +1.5510304721e+03 4.2212428685e+03 0.0000000000e+00 0.0000e+00 1.0000e+00
</event>
<event>
 6      1 +1.4834189e-01 1.00166200e+04 7.81653100e-03 6.93772300e-02
  1000022 -1    0    0    0    0 +0.0000000000e+00 +0.0000000000e+00 +4.4721471353e+01 1.0000100000e+04 1.0000000000e+04 0.0000e+00 1.0000e+00
  1000022 -1    0    0    0    0 -0.0000000000e+00 -0.0000000000e+00 -4.4721471353e+01 1.0000100000e+04 1.0000000000e+04 0.0000e+00 1.0000e+00
      -24  1    1    2    0    0 -9.0435881605e+03 +3.4427785322e+03 -6.9683633033e+01 9.6773157083e+03 7.9829010000e+01 0.0000e+00 1.0000e+00
       24  1    1    2    0    0 +4.3144947438e+02 -1.6657633433e+02 +1.6494732539e+02 4.9747021528e+02 7.9829010000e+01 0.0000e+00 1.0000e+00
       22  1    1    2    0    0 +8.9034905984e+03 -3.3670833790e+03 -6.9749881743e+01 9.5191522923e+03 0.0000000000e+00 0.0000e+00 1.0000e+00
       22  1    1    2    0    0 -2.9135191230e+02 +9.0881181150e+01 -2.5513810609e+01 3.0626178413e+02 0.0000000000e+00 0.0000e+00 -1.0000e+00
</event>
<event>
 6      1 +1.4834189e-01 1.00744900e+04 7.81653100e-03 6.93424700e-02
  1000022 -1    0    0    0    0 +0.0000000000e+00 +0.0000000000e+00 +4.4721471353e+01 1.0000100000e+04 1.0000000000e+04 0.0000e+00 1.0000e+00
  1000022 -1    0    0    0    0 -0.0000000000e+00 -0.0000000000e+00 -4.4721471353e+01 1.0000100000e+04 1.0000000000e+04 0.0000e+00 1.0000e+00
      -24  1    1    2    0    0 -8.7690423377e+03 +4.6354050018e+03 -3.6092834538e+02 9.9257103017e+03 7.9829010000e+01 0.0000e+00 1.0000e+00
       24  1    1    2    0    0 +7.8434503115e+03 -4.6554177662e+03 +3.2842613949e+02 9.1272593787e+03 7.9829010000e+01 0.0000e+00 1.0000e+00
       22  1    1    2    0    0 +1.2127579424e+02 -6.4342889455e+01 +1.7173754236e+01 1.3835737612e+02 0.0000000000e+00 0.0000e+00 -1.0000e+00
       22  1    1    2    0    0 +8.0431623194e+02 +8.4355653814e+01 +1.5328451653e+01 8.0887294350e+02 0.0000000000e+00 0.0000e+00 -1.0000e+00
</event>
<event>
 6      1 +1.4834189e-01 1.00002700e+04 7.81653100e-03 6.93870900e-02
  1000022 -1    0    0    0    0 +0.0000000000e+00 +0.0000000000e+00 +4.4721471353e+01 1.0000100000e+04 1.0000000000e+04 0.0000e+00 1.0000e+00
  1000022 -1    0    0    0    0 -0.0000000000e+00 -0.0000000000e+00 -4.4721471353e+01 1.0000100000e+04 1.0000000000e+04 0.0000e+00 1.0000e+00
      -24  1    1    2    0    0 -1.9277589974e+03 -9.6507611518e+03 +1.6424276051e+03 9.9778447908e+03 7.9829010000e+01 0.0000e+00 -1.0000e+00
       24  1    1    2    0    0 +1.9155733915e+03 +9.5906739727e+03 -1.6213646204e+03 9.9139116685e+03 7.9829010000e+01 0.0000e+00 -1.0000e+00
       22  1    1    2    0    0 -3.1911350161e+00 -2.1795233403e+01 +1.6499685156e+00 2.2089317279e+01 0.0000000000e+00 0.0000e+00 -1.0000e+00
       22  1    1    2    0    0 +1.5376740913e+01 +8.1882412559e+01 -2.2712953275e+01 8.6354223371e+01 0.0000000000e+00 0.0000e+00 1.0000e+00
</event>
<event>
 6      1 +1.4834189e-01 1.04350600e+04 7.81653100e-03 6.91310700e-02
  1000022 -1    0    0    0    0 +0.0000000000e+00 +0.0000000000e+00 +4.4721471353e+01 1.0000100000e+04 1.0000000000e+04 0.0000e+00 -1.0000e+00
  1000022 -1    0    0    0    0 -0.0000000000e+00 -0.0000000000e+00 -4.4721471353e+01 1.0000100000e+04 1.0000000000e+04 0.0000e+00 -1.0000e+00
      -24  1    1    2    0    0 -7.1318638393e+03 +2.2772232909e+03 +4.4499773890e+03 8.7096440324e+03 7.9829010000e+01 0.0000e+00 -1.0000e+00
       24  1    1    2    0    0 +7.5158950248e+03 -1.8925416677e+03 -2.9259791727e+03 8.2848125373e+03 7.9829010000e+01 0.0000e+00 -1.0000e+00
       22  1    1    2    0    0 +2.5992134804e+02 -5.4987960271e+02 -2.0624326743e+03 2.1502453862e+03 0.0000000000e+00 0.0000e+00 -1.0000e+00
       22  1    1    2    0    0 -6.4395253354e+02 +1.6519797957e+02 +5.3843445808e+02 8.5549804416e+02 0.0000000000e+00 0.0000e+00 -1.0000e+00
</event>
<event>
 6      1 +1.4834189e-01 1.00039000e+04 7.81653100e-03 6.93849000e-02
  1000022 -1    0    0    0    0 +0.0000000000e+00 +0.0000000000e+00 +4.4721471353e+01 1.0000100000e+04 1.0000000000e+04 0.0000e+00 1.0000e+00
  1000022 -1    0    0    0    0 -0.0000000000e+00 -0.0000000000e+00 -4.4721471353e+01 1.0000100000e+04 1.0000000000e+04 0.0000e+00 1.0000e+00
      -24  1    1    2    0    0 -5.6559640967e+03 -6.0695029526e+03 -3.5777128360e+03 9.0352198513e+03 7.9829010000e+01 0.0000e+00 -1.0000e+00
       24  1    1    2    0    0 +6.0932221627e+03 +6.5950011890e+03 +3.8132534167e+03 9.7554431626e+03 7.9829010000e+01 0.0000e+00 -1.0000e+00
       22  1    1    2    0    0 -6.4386144172e+02 -6.4665016579e+02 -3.0161326181e+02 9.6108509131e+02 0.0000000000e+00 0.0000e+00 1.0000e+00
       22  1    1    2    0    0 +2.0660337568e+02 +1.2115192936e+02 +6.6072681163e+01 2.4845189479e+02 0.0000000000e+00 0.0000e+00 -1.0000e+00
</event>
<event>
 6      1 +1.4834189e-01 1.00101100e+04 7.81653100e-03 6.93811500e-02
  1000022 -1    0    0    0    0 +0.0000000000e+00 +0.0000000000e+00 +4.4721471353e+01 1.0000100000e+04 1.0000000000e+04 0.0000e+00 1.0000e+00
  1000022 -1    0    0    0    0 -0.0000000000e+00 -0.0000000000e+00 -4.4721471353e+01 1.0000100000e+04 1.0000000000e+04 0.0000e+00 1.0000e+00
      -24  1    1    2    0    0 +3.2072250326e+03 +2.8671162099e+03 +7.6495637457e+03 8.7766078835e+03 7.9829010000e+01 0.0000e+00 -1.0000e+00
       24  1    1    2    0    0 -1.0079242462e+02 +7.4837019258e+00 -1.6292597484e+02 2.0768404554e+02 7.9829010000e+01 0.0000e+00 1.0000e+00
       22  1    1    2    0    0 +4.2363258522e+02 +4.2508731965e+01 +1.1576972387e+03 1.2335049477e+03 0.0000000000e+00 0.0000e+00 -1.0000e+00
       22  1    1    2    0    0 -3.5300651932e+03 -2.9171086438e+03 -8.6443350096e+03 9.7824031232e+03 0.0000000000e+00 0.0000e+00 -1.0000e+00
</event>
<event>
 6      1 +1.4834189e-01 6.63051800e+03 7.81653100e-03 7.19617400e-02
  1000022 -1    0    0    0    0 +0.0000000000e+00 +0.0000000000e+00 +4.4721471353e+01 1.0000100000e+04 1.0000000000e+04 0.0000e+00 1.0000e+00
  1000022 -1    0    0    0    0 -0.0000000000e+00 -0.0000000000e+00 -4.4721471353e+01 1.0000100000e+04 1.0000000000e+04 0.0000e+00 1.0000e+00
      -24  1    1    2    0    0 +5.1986143837e+03 -1.6164391655e+03 -6.6776050213e+02 5.4855030622e+03 7.9829010000e+01 0.0000e+00 -1.0000e+00
       24  1    1    2    0    0 -7.3895137713e+03 -3.4273814529e+03 -1.8499044090e+03 8.3534649334e+03 7.9829010000e+01 0.0000e+00 -1.0000e+00
       22  1    1    2    0    0 +1.1290661591e+02 -3.4077965654e+01 -1.3840717573e+01 1.1874669310e+02 0.0000000000e+00 0.0000e+00 -1.0000e+00
       22  1    1    2    0    0 +2.0779927716e+03 +5.0778985841e+03 +2.5315056287e+03 6.0424853113e+03 0.0000000000e+00 0.0000e+00 -1.0000e+00
</event>
<event>
 6      1 +1.4834189e-01 1.00005300e+04 7.81653100e-03 6.93869300e-02
  1000022 -1    0    0    0    0 +0.0000000000e+00 +0.0000000000e+00 +4.4721471353e+01 1.0000100000e+04 1.0000000000e+04 0.0000e+00 -1.0000e+00
  1000022 -1    0    0    0    0 -0.0000000000e+00 -0.0000000000e+00 -4.4721471353e+01 1.0000100000e+04 1.0000000000e+04 0.0000e+00 -1.0000e+00
      -24  1    1    2    0    0 -3.4116883156e+03 -6.9896698139e+03 -1.6156432739e+03 7.9442921100e+03 7.9829010000e+01 0.0000e+00 -1.0000e+00
       24  1    1    2    0    0 +3.7583259290e+03 +7.5671697059e+03 +1.8018588431e+03 8.6394524773e+03 7.9829010000e+01 0.0000e+00 -1.0000e+00
       22  1    1    2    0    0 -9.2381752631e+02 -1.7772862907e+03 -4.6470229706e+02 2.0562425941e+03 0.0000000000e+00 0.0000e+00 1.0000e+00
       22  1    1    2    0    0 +5.7717991290e+02 +1.1997863986e+03 +2.7848672787e+02 1.3602128186e+03 0.0000000000e+00 0.0000e+00 -1.0000e+00
</event>
<event>
 6      1 +1.4834189e-01 1.01834400e+04 7.81653100e-03 6.92776700e-02
  1000022 -1    0    0    0    0 +0.0000000000e+00 +0.0000000000e+00 +4.4721471353e+01 1.0000100000e+04 1.0000000000e+04 0.0000e+00 -1.0000e+00
  1000022 -1    0    0    0    0 -0.0000000000e+00 -0.0000000000e+00 -4.4721471353e+01 1.0000100000e+04 1.0000000000e+04 0.0000e+00 -1.0000e+00
      -24  1    1    2    0    0 -2.8162081347e+03 +6.8805284313e+03 +5.4027618935e+03 9.1906968452e+03 7.9829010000e+01 0.0000e+00 1.0000e+00
       24  1    1    2    0    0 +3.2961279272e+03 -7.2302846259e+03 -5.5534497195e+03 9.6947744451e+03 7.9829010000e+01 0.0000e+00 1.0000e+00
       22  1    1    2    0    0 -6.8989380416e+01 +5.0316486642e+02 +3.6608694949e+02 6.2606235473e+02 0.0000000000e+00 0.0000e+00 1.0000e+00
       22  1    1    2    0    0 -4.1093041204e+02 -1.5340867182e+02 -2.1539912343e+02 4.8866635500e+02 0.0000000000e+00 0.0000e+00 1.0000e+00
</event>
<event>
 6      1 +1.4834189e-01 1.00270400e+04 7.81653100e-03 6.93709500e-02
  1000022 -1    0    0    0    0 +0.0000000000e+00 +0.0000000000e+00 +4.4721471353e+01 1.0000100000e+04 1.0000000000e+04 0.0000e+00 -1.0000e+00
  1000022 -1    0    0    0    0 -0.0000000000e+00 -0.0000000000e+00 -4.4721471353e+01 1.0000100000e+04 1.0000000000e+04 0.0000e+00 -1.0000e+00
      -24  1    1    2    0    0 +4.6294293614e+02 +2.6731836150e+02 +8.7260739527e+02 1.0264461046e+03 7.9829010000e+01 0.0000e+00 -1.0000e+00
       24  1    1    2    0    0 -8.2171173908e+02 -1.0042129403e+03 -3.0111535280e+03 3.2797975626e+03 7.9829010000e+01 0.0000e+00 -1.0000e+00
       22  1    1    2    0    0 +2.5291843813e+03 +1.0204929636e+03 +8.5208819161e+03 8.9467093477e+03 0.0000000000e+00 0.0000e+00 -1.0000e+00
       22  1    1    2    0    0 -2.1704155784e+03 -2.8359838482e+02 -6.3823357834e+03 6.7472469852e+03 0.0000000000e+00 0.0000e+00 -1.0000e+00
</event>
<event>
 6      1 +1.4834189e-01 1.00326100e+04 7.81653100e-03 6.93676000e-02
  1000022 -1    0    0    0    0 +0.0000000000e+00 +0.0000000000e+00 +4.4721471353e+01 1.0000100000e+04 1.0000000000e+04 0.0000e+00 1.0000e+00
  1000022 -1    0    0    0    0 -0.0000000000e+00 -0.0000000000e+00 -4.4721471353e+01 1.0000100000e+04 1.0000000000e+04 0.0000e+00 1.0000e+00
      -24  1    1    2    0    0 -7.1781302426e+03 +3.2714472982e+03 -5.7526561765e+03 9.7635724487e+03 7.9829010000e+01 0.0000e+00 -1.0000e+00
       24  1    1    2    0    0 +7.2547390017e+03 -3.3205385751e+03 +5.9299592003e+03 9.9412274493e+03 7.9829010000e+01 0.0000e+00 -1.0000e+00
       22  1    1    2    0    0 -1.4899490674e+02 +6.4311952707e+01 -1.2363604069e+02 2.0401318598e+02 0.0000000000e+00 0.0000e+00 -1.0000e+00
       22  1    1    2    0    0 +7.2386147687e+01 -1.5220675825e+01 -5.3666983099e+01 9.1386916047e+01 0.0000000000e+00 0.0000e+00 -1.0000e+00
</event>
<event>
 6      1 +1.4834189e-01 1.00192300e+04 7.81653100e-03 6.93756600e-02
  1000022 -1    0    0    0    0 +0.0000000000e+00 +0.0000000000e+00 +4.4721471353e+01 1.0000100000e+04 1.0000000000e+04 0.0000e+00 -1.0000e+00
  1000022 -1    0    0    0    0 -0.0000000000e+00 -0.0000000000e+00 -4.4721471353e+01 1.0000100000e+04 1.0000000000e+04 0.0000e+00 -1.0000e+00
      -24  1    1    2    0    0 -6.5683793972e+03 +6.0433641352e+03 +1.3044768321e+03 9.0207477768e+03 7.9829010000e+01 0.0000e+00 -1.0000e+00
       24  1    1    2    0    0 +6.6987289422e+03 -6.3063647084e+03 -1.1354612599e+03 9.2703209340e+03 7.9829010000e+01 0.0000e+00 -1.0000e+00
       22  1    1    2    0    0 +4.7683881410e+02 -4.5813073675e+02 -3.5156845221e+02 7.4890547012e+02 0.0000000000e+00 0.0000e+00 1.0000e+00
       22  1    1    2    0    0 -6.0718835908e+02 +7.2113130998e+02 +1.8255288001e+02 9.6022581908e+02 0.0000000000e+00 0.0000e+00 -1.0000e+00
</event>
<event>
 6      1 +1.4834189e-01 1.00024600e+04 7.81653100e-03 6.93857700e-02
  1000022 -1    0    0    0    0 +0.0000000000e+00 +0.0000000000e+00 +4.4721471353e+01 1.0000100000e+04 1.0000000000e+04 0.0000e+00 1.0000e+00
  1000022 -1    0    0    0    0 -0.0000000000e+00 -0.0000000000e+00 -4.4721471353e+01 1.0000100000e+04 1.0000000000e+04 0.0000e+00 1.0000e+00
      -24  1    1    2    0    0 +9.4215482473e+02 +3.4454265121e+03 -9.3174967482e+02 3.6923095335e+03 7.9829010000e+01 0.0000e+00 -1.0000e+00
       24  1    1    2    0    0 -2.0587859758e+03 -8.0889269244e+03 +2.4294150137e+03 8.6935475188e+03 7.9829010000e+01 0.0000e+00 -1.0000e+00
       22  1    1    2    0    0 +1.4433783342e+03 +5.8900777560e+03 -1.7268714570e+03 6.3054295663e+03 0.0000000000e+00 0.0000e+00 -1.0000e+00
       22  1    1    2    0    0 -3.2674718312e+02 -1.2465773436e+03 +2.2920611813e+02 1.3089133814e+03 0.0000000000e+00 0.0000e+00 -1.0000e+00
</event>
<event>
 6      1 +1.4834189e-01 9.18520700e+03 7.81653100e-03 6.99043300e-02
  1000022 -1    0    0    0    0 +0.0000000000e+00 +0.0000000000e+00 +4.4721471353e+01 1.0000100000e+04 1.0000000000e+04 0.0000e+00 -1.0000e+00
  1000022 -1    0    0    0    0 -0.0000000000e+00 -0.0000000000e+00 -4.4721471353e+01 1.0000100000e+04 1.0000000000e+04 0.0000e+00 -1.0000e+00
      -24  1    1    2    0    0 +4.2015499969e+03 -7.9351709053e+03 -1.4975645446e+03 9.1032429336e+03 7.9829010000e+01 0.0000e+00 -1.0000e+00
       24  1    1    2    0    0 -1.1627002346e+03 +2.9361687608e+02 +1.0010531564e+03 1.5641492251e+03 7.9829010000e+01 0.0000e+00 1.0000e+00
       22  1    1    2    0    0 +2.6967848004e+02 -4.7264701857e+02 -8.4852715687e+01 5.5074646628e+02 0.0000000000e+00 0.0000e+00 -1.0000e+00
       22  1    1    2    0    0 -3.3085282423e+03 +8.1142010478e+03 +5.8136410394e+02 8.7820613750e+03 0.0000000000e+00 0.0000e+00 -1.0000e+00
</event>
<event>
 6      1 +1.4834189e-01 1.00006100e+04 7.81653100e-03 6.93868800e-02
  1000022 -1    0    0    0    0 +0.0000000000e+00 +0.0000000000e+00 +4.4721471353e+01 1.0000100000e+04 1.0000000000e+04 0.0000e+00 1.0000e+00
  1000022 -1    0    0    0    0 -0.0000000000e+00 -0.0000000000e+00 -4.4721471353e+01 1.0000100000e+04 1.0000000000e+04 0.0000e+00 1.0000e+00
      -24  1    1    2    0    0 +5.5269025507e+03 +1.5186940766e+03 +8.1403771476e+03 9.9561637330e+03 7.9829010000e+01 0.0000e+00 1.0000e+00
       24  1    1    2    0    0 -5.5373381882e+03 -1.5110708086e+03 -8.1470292795e+03 9.9662384053e+03 7.9829010000e+01 0.0000e+00 1.0000e+00
       22  1    1    2    0    0 -1.7173908426e+01 -5.2535698519e+00 -2.8100635032e+01 3.3349494989e+01 0.0000000000e+00 0.0000e+00 1.0000e+00
       22  1    1    2    0    0 +2.7609545895e+01 -2.3696981914e+00 +3.4752766976e+01 4.4448366748e+01 0.0000000000e+00 0.0000e+00 -1.0000e+00
</event>
<event>
 6      1 +1.4834189e-01 1.00045100e+04 7.81653100e-03 6.93845300e-02
  1000022 -1    0    0    0    0 +0.0000000000e+00 +0.0000000000e+00 +4.4721471353e+01 1.0000100000e+04 1.0000000000e+04 0.0000e+00 1.0000e+00
  1000022 -1    0    0    0    0 -0.0000000000e+00 -0.0000000000e+00 -4.4721471353e+01 1.0000100000e+04 1.0000000000e+04 0.0000e+00 1.0000e+00
      -24  1    1    2    0    0 -8.4802072827e+03 -3.2989679385e+03 -3.7238786985e+03 9.8321284699e+03 7.9829010000e+01 0.0000e+00 1.0000e+00
       24  1    1    2    0    0 +8.6029202494e+03 +3.3918038227e+03 +3.7938038014e+03 9.9956935699e+03 7.9829010000e+01 0.0000e+00 1.0000e+00
       22  1    1    2    0    0 -9.0676597709e+01 -8.4531933202e+01 -6.0646165146e+01 1.3800670437e+02 0.0000000000e+00 0.0000e+00 -1.0000e+00
       22  1    1    2    0    0 -3.2036368989e+01 -8.3039509775e+00 -9.2789378015e+00 3.4371255818e+01 0.0000000000e+00 0.0000e+00 -1.0000e+00
</event>
<event>
 6      1 +1.4834189e-01 1.00005400e+04 7.81653100e-03 6.93869300e-02
  1000022 -1    0    0    0    0 +0.0000000000e+00 +0.0000000000e+00 +4.4721471353e+01 1.0000100000e+04 1.0000000000e+04 0.0000e+00 1.0000e+00
  1000022 -1    0    0    0    0 -0.0000000000e+00 -0.0000000000e+00 -4.4721471353e+01 1.0000100000e+04 1.0000000000e+04 0.0000e+00 1.0000e+00
      -24  1    1    2    0    0 +6.5046261829e+03 +2.0220220271e+03 -6.0376478642e+03 9.1026534187e+03 7.9829010000e+01 0.0000e+00 1.0000e+00
       24  1    1    2    0    0 -7.0247142263e+03 -2.3258028206e+03 +6.6830823671e+03 9.9712552528e+03 7.9829010000e+01 0.0000e+00 1.0000e+00
       22  1    1    2    0    0 +5.2622140875e+02 +2.8787870094e+02 -6.6815128301e+02 8.9789156053e+02 0.0000000000e+00 0.0000e+00 -1.0000e+00
       22  1    1    2    0    0 -6.1333653892e+00 +1.5902092610e+01 +2.2716780138e+01 2.8399767961e+01 0.0000000000e+00 0.0000e+00 -1.0000e+00
</event>
<event>
 6      1 +1.4834189e-01 1.00027000e+04 7.81653100e-03 6.93856300e-02
  1000022 -1    0    0    0    0 +0.0000000000e+00 +0.0000000000e+00 +4.4721471353e+01 1.0000100000e+04 1.0000000000e+04 0.0000e+00 -1.0000e+00
  1000022 -1    0    0    0    0 -0.0000000000e+00 -0.0000000000e+00 -4.4721471353e+01 1.0000100000e+04 1.0000000000e+04 0.0000e+00 -1.0000e+00
      -24  1    1    2    0    0 +1.5871554573e+03 -3.2544226459e+03 -9.2708471003e+03 9.9531556720e+03 7.9829010000e+01 0.0000e+00 -1.0000e+00
       24  1    1    2    0    0 -1.4933432154e+03 +3.1394781328e+03 +8.7039144023e+03 9.3728808537e+03 7.9829010000e+01 0.0000e+00 -1.0000e+00
       22  1    1    2    0    0 -1.0062837508e+02 +1.3064808569e+02 +6.0784294070e+02 6.2981587208e+02 0.0000000000e+00 0.0000e+00 -1.0000e+00
       22  1    1    2    0    0 +6.8161332189e+00 -1.5703572579e+01 -4.0910242663e+01 4.4347602173e+01 0.0000000000e+00 0.0000e+00 -1.0000e+00
</event>
<event>
 6      1 +1.4834189e-01 1.00005300e+04 7.81653100e-03 6.93869400e-02
  1000022 -1    0    0    0    0 +0.0000000000e+00 +0.0000000000e+00 +4.4721471353e+01 1.0000100000e+04 1.0000000000e+04 0.0000e+00 1.0000e+00
  1000022 -1    0    0    0    0 -0.0000000000e+00 -0.0000000000e+00 -4.4721471353e+01 1.0000100000e+04 1.0000000000e+04 0.0000e+00 1.0000e+00
      -24  1    1    2    0    0 -5.1925508698e+03 -7.4163478845e+03 -4.0910641162e+03 9.9351889138e+03 7.9829010000e+01 0.0000e+00 -1.0000e+00
       24  1    1    2    0    0 +5.1964210995e+03 +7.4397190864e+03 +4.0965027008e+03 9.9569031017e+03 7.9829010000e+01 0.0000e+00 -1.0000e+00
       22  1    1    2    0    0 +2.0195323473e+01 +3.1327257762e+01 +2.0978554757e+01 4.2770877110e+01 0.0000000000e+00 0.0000e+00 -1.0000e+00
       22  1    1    2    0    0 -2.4065553175e+01 -5.4698459714e+01 -2.6417139311e+01 6.5337107329e+01 0.0000000000e+00 0.0000e+00 1.0000e+00
</event>
<event>
 6      1 +1.4834189e-01 1.01496400e+04 7.81653100e-03 6.92976900e-02
  1000022 -1    0    0    0    0 +0.0000000000e+00 +0.0000000000e+00 +4.4721471353e+01 1.0000100000e+04 1.0000000000e+04 0.0000e+00 -1.0000e+00
  1000022 -1    0    0    0    0 -0.0000000000e+00 -0.0000000000e+00 -4.4721471353e+01 1.0000100000e+04 1.0000000000e+04 0.0000e+00 -1.0000e+00
      -24  1    1    2    0    0 +6.3767386624e+03 -3.2127108430e+02 -6.8010851134e+03 9.3288339287e+03 7.9829010000e+01 0.0000e+00 1.0000e+00
       24  1    1    2    0    0 -6.7807500398e+03 +8.2933447055e+02 +7.0965400927e+03 9.8505644876e+03 7.9829010000e+01 0.0000e+00 1.0000e+00
       22  1    1    2    0    0 +2.5501688898e+02 -5.4468427975e+02 -1.7689469333e+02 6.2690215409e+02 0.0000000000e+00 0.0000e+00 1.0000e+00
       22  1    1    2    0    0 +1.4899448844e+02 +3.6620893492e+01 -1.1856028593e+02 1.9389942967e+02 0.0000000000e+00 0.0000e+00 -1.0000e+00
</event>
<event>
 6      1 +1.4834189e-01 9.37856400e+03 7.81653100e-03 6.97768700e-02
  1000022 -1    0    0    0    0 +0.0000000000e+00 +0.0000000000e+00 +4.4721471353e+01 1.0000100000e+04 1.0000000000e+04 0.0000e+00 1.0000e+00
  1000022 -1    0    0    0    0 -0.0000000000e+00 -0.0000000000e+00 -4.4721471353e+01 1.0000100000e+04 1.0000000000e+04 0.0000e+00 1.0000e+00
      -24  1    1    2    0    0 -8.9403334747e+03 +3.2709403372e+03 +3.5932311897e+02 9.5270194238e+03 7.9829010000e+01 0.0000e+00 1.0000e+00
       24  1    1    2    0    0 -6.4461033483e+01 -1.1729674319e+03 -2.5625362903e+02 1.2050088856e+03 7.9829010000e+01 0.0000e+00 -1.0000e+00
       22  1    1    2    0    0 +9.0153248481e+03 -2.1003691328e+03 -1.0385017111e+02 9.2573439748e+03 0.0000000000e+00 0.0000e+00 1.0000e+00
       22  1    1    2    0    0 -1.0530339912e+01 +2.3962275343e+00 +7.8068117475e-01 1.0827715740e+01 0.0000000000e+00 0.0000e+00 1.0000e+00
</event>
<event>
 6      1 +1.4834189e-01 1.04689700e+04 7.81653100e-03 6.91116300e-02
  1000022 -1    0    0    0    0 +0.0000000000e+00 +0.0000000000e+00 +4.4721471353e+01 1.0000100000e+04 1.0000000000e+04 0.0000e+00 1.0000e+00
  1000022 -1    0    0    0    0 -0.0000000000e+00 -0.0000000000e+00 -4.4721471353e+01 1.0000100000e+04 1.0000000000e+04 0.0000e+00 1.0000e+00
      -24  1    1    2    0    0 +8.6077118680e+03 -4.0920149773e+03 +2.4501442120e+01 9.5312256908e+03 7.9829010000e+01 0.0000e+00 -1.0000e+00
       24  1    1    2    0    0 -7.1013519818e+03 +3.8975955732e+03 +1.5823119326e+03 8.2541223001e+03 7.9829010000e+01 0.0000e+00 -1.0000e+00
       22  1    1    2    0    0 -9.2264231798e+00 -5.4315729174e+00 -1.7285389341e+00 1.0845124061e+01 0.0000000000e+00 0.0000e+00 -1.0000e+00
       22  1    1    2    0    0 -1.4971334630e+03 +1.9985097700e+02 -1.6050848358e+03 2.2040068850e+03 0.0000000000e+00 0.0000e+00 -1.0000e+00
</event>
<event>
 6      1 +1.4834189e-01 8.48387600e+03 7.81653100e-03 7.03946700e-02
  1000022 -1    0    0    0    0 +0.0000000000e+00 +0.0000000000e+00 +4.4721471353e+01 1.0000100000e+04 1.0000000000e+04 0.0000e+00 1.0000e+00
  1000022 -1    0    0    0    0 -0.0000000000e+00 -0.0000000000e+00 -4.4721471353e+01 1.0000100000e+04 1.0000000000e+04 0.0000e+00 1.0000e+00
      -24  1    1    2    0    0 +5.0967511958e+03 -5.3982267918e+03 +3.4366384100e+03 8.1813557238e+03 7.9829010000e+01 0.0000e+00 -1.0000e+00
       24  1    1    2    0    0 -2.5725732395e+03 -9.3187699128e+02 +6.2151814831e+02 2.8069886496e+03 7.9829010000e+01 0.0000e+00 -1.0000e+00
       22  1    1    2    0    0 -2.8571981634e+03 +6.6619392723e+03 -4.3544639633e+03 8.4561440752e+03 0.0000000000e+00 0.0000e+00 -1.0000e+00
       22  1    1    2    0    0 +3.3302020703e+02 -3.3183548917e+02 +2.9630740500e+02 5.5571155145e+02 0.0000000000e+00 0.0000e+00 -1.0000e+00
</event>
<event>
 6      1 +1.4834189e-01 1.00295800e+04 7.81653100e-03 6.93694200e-02
  1000022 -1    0    0    0    0 +0.0000000000e+00 +0.0000000000e+00 +4.4721471353e+01 1.0000100000e+04 1.0000000000e+04 0.0000e+00 -1.0000e+00
  1000022 -1    0    0    0    0 -0.0000000000e+00 -0.0000000000e+00 -4.4721471353e+01 1.0000100000e+04 1.0000000000e+04 0.0000e+00 -1.0000e+00
      -24  1    1    2    0    0 -3.7879883669e+02 -4.3705159894e+02 +1.2403050807e+02 5.9687427201e+02 7.9829010000e+01 0.0000e+00 0.0000e+00
       24  1    1    2    0    0 +5.2474046845e+03 +8.3673950252e+03 -1.3631915488e+03 9.9706177993e+03 7.9829010000e+01 0.0000e+00 -1.0000e+00
       22  1    1    2    0    0 -4.8342903322e+03 -7.9432067360e+03 +1.1946907477e+03 9.3750830530e+03 0.0000000000e+00 0.0000e+00 -1.0000e+00
       22  1    1    2    0    0 -3.4315515549e+01 +1.2863309814e+01 +4.4470292983e+01 5.7624875746e+01 0.0000000000e+00 0.0000e+00 1.0000e+00
</event>
<event>
 6      1 +1.4834189e-01 1.06095000e+04 7.81653100e-03 6.90318600e-02
  1000022 -1    0    0    0    0 +0.0000000000e+00 +0.0000000000e+00 +4.4721471353e+01 1.0000100000e+04 1.0000000000e+04 0.0000e+00 1.0000e+00
  1000022 -1    0    0    0    0 -0.0000000000e+00 -0.0000000000e+00 -4.4721471353e+01 1.0000100000e+04 1.0000000000e+04 0.0000e+00 1.0000e+00
      -24  1    1    2    0    0 -5.3973369357e+03 +7.1957135331e+03 +2.6961822623e+03 9.3907034194e+03 7.9829010000e+01 0.0000e+00 1.0000e+00
       24  1    1    2    0    0 +5.5016861010e+03 -4.6573822928e+03 -3.0401143936e+03 7.8235815310e+03 7.9829010000e+01 0.0000e+00 1.0000e+00
       22  1    1    2    0    0 -3.6885484304e+02 -1.4618272914e+03 +6.4103627484e+02 1.6382675089e+03 0.0000000000e+00 0.0000e+00 1.0000e+00
       22  1    1    2    0    0 +2.6450567775e+02 -1.0765039490e+03 -2.9710414354e+02 1.1476475408e+03 0.0000000000e+00 0.0000e+00 -1.0000e+00
</event>
<event>
 6      1 +1.4834189e-01 1.10397100e+04 7.81653100e-03 6.87951500e-02
  1000022 -1    0    0    0    0 +0.0000000000e+00 +0.0000000000e+00 +4.4721471353e+01 1.0000100000e+04 1.0000000000e+04 0.0000e+00 1.0000e+00
  1000022 -1    0    0    0    0 -0.0000000000e+00 -0.0000000000e+00 -4.4721471353e+01 1.0000100000e+04 1.0000000000e+04 0.0000e+00 1.0000e+00
      -24  1    1    2    0    0 -3.8672877669e+03 -6.6366038401e+03 -3.2878897001e+03 8.3556577571e+03 7.9829010000e+01 0.0000e+00 1.0000e+00
       24  1    1    2    0    0 +2.0617375376e+03 +8.0515785900e+03 +2.6837946647e+03 8.7342890917e+03 7.9829010000e+01 0.0000e+00 1.0000e+00
       22  1    1    2    0    0 +1.9994013197e+03 -8.6280569420e+02 +7.5691606522e+02 2.3054199689e+03 0.0000000000e+00 0.0000e+00 1.0000e+00
       22  1    1    2    0    0 -1.9385109049e+02 -5.5216905565e+02 -1.5282102978e+02 6.0483318233e+02 0.0000000000e+00 0.0000e+00 1.0000e+00
</event>
<event>
 6      1 +1.4834189e-01 1.01490900e+04 7.81653100e-03 6.92980100e-02
  1000022 -1    0    0    0    0 +0.0000000000e+00 +0.0000000000e+00 +4.4721471353e+01 1.0000100000e+04 1.0000000000e+04 0.0000e+00 -1.0000e+00
  1000022 -1    0    0    0    0 -0.0000000000e+00 -0.0000000000e+00 -4.4721471353e+01 1.0000100000e+04 1.0000000000e+04 0.0000e+00 -1.0000e+00
      -24  1    1    2    0    0 -6.5730277743e+03 -5.9352209841e+03 +4.3135299545e+03 9.8511144339e+03 7.9829010000e+01 0.0000e+00 1.0000e+00
       24  1    1    2    0    0 +5.9972935233e+03 +6.0465935347e+03 -4.2785127032e+03 9.5310475080e+03 7.9829010000e+01 0.0000e+00 1.0000e+00
       22  1    1    2    0    0 +5.3688006808e+02 -1.4224200459e+02 +3.1845740410e+00 5.5541258258e+02 0.0000000000e+00 0.0000e+00 -1.0000e+00
       22  1    1    2    0    0 +3.8854182902e+01 +3.0869454002e+01 -3.8201825339e+01 6.2625475476e+01 0.0000000000e+00 0.0000e+00 -1.0000e+00
</event>
<event>
 6      1 +1.4834189e-01 1.02114400e+04 7.81653100e-03 6.92611400e-02
  1000022 -1    0    0    0    0 +0.0000000000e+00 +0.0000000000e+00 +4.4721471353e+01 1.0000100000e+04 1.0000000000e+04 0.0000e+00 1.0000e+00
  1000022 -1    0    0    0    0 -0.0000000000e+00 -0.0000000000e+00 -4.4721471353e+01 1.0000100000e+04 1.0000000000e+04 0.0000e+00 1.0000e+00
      -24  1    1    2    0    0 +9.1021639346e+03 -6.6051848715e+02 -3.2170135318e+03 9.6768394478e+03 7.9829010000e+01 0.0000e+00 1.0000e+00
       24  1    1    2    0    0 -4.0562511655e+03 +5.6785218321e+02 +2.9533131977e+03 5.0501545653e+03 7.9829010000e+01 0.0000e+00 1.0000e+00
       22  1    1    2    0    0 -5.1516089519e+03 +9.9183501257e+01 +2.9992301565e+02 5.1612853026e+03 0.0000000000e+00 0.0000e+00 1.0000e+00
       22  1    1    2    0    0 +1.0569618271e+02 -6.5171973160e+00 -3.6222681552e+01 1.1192068423e+02 0.0000000000e+00 0.0000e+00 -1.0000e+00
</event>
<event>
 6      1 +1.4834189e-01 1.01517600e+04 7.81653100e-03 6.92964300e-02
  1000022 -1    0    0    0    0 +0.0000000000e+00 +0.0000000000e+00 +4.4721471353e+01 1.0000100000e+04 1.0000000000e+04 0.0000e+00 -1.0000e+00
  1000022 -1    0    0    0    0 -0.0000000000e+00 -0.0000000000e+00 -4.4721471353e+01 1.0000100000e+04 1.0000000000e+04 0.0000e+00 -1.0000e+00
      -24  1    1    2    0    0 -6.5477417729e+03 -6.2228801997e+03 -3.7208009430e+03 9.7697437343e+03 7.9829010000e+01 0.0000e+00 -1.0000e+00
       24  1    1    2    0    0 +5.4528413664e+03 +5.3822528765e+03 +2.0834631303e+03 7.9403599591e+03 7.9829010000e+01 0.0000e+00 -1.0000e+00
       22  1    1    2    0    0 -4.7166081200e+01 -5.4660383982e+01 -3.1321696018e+01 7.8698446200e+01 0.0000000000e+00 0.0000e+00 1.0000e+00
       22  1    1    2    0    0 +1.1420664877e+03 +8.9528770717e+02 +1.6686595087e+03 2.2113978604e+03 0.0000000000e+00 0.0000e+00 -1.0000e+00
</event>
<event>
 6      1 +1.4834189e-01 1.00106300e+04 7.81653100e-03 6.93808400e-02
  1000022 -1    0    0    0    0 +0.0000000000e+00 +0.0000000000e+00 +4.4721471353e+01 1.0000100000e+04 1.0000000000e+04 0.0000e+00 1.0000e+00
  1000022 -1    0    0    0    0 -0.0000000000e+00 -0.0000000000e+00 -4.4721471353e+01 1.0000100000e+04 1.0000000000e+04 0.0000e+00 1.0000e+00
      -24  1    1    2    0    0 +2.3957651729e+03 -2.1897578274e+03 +9.1115105407e+03 9.6726794174e+03 7.9829010000e+01 0.0000e+00 -1.0000e+00
       24  1    1    2    0    0 -2.4265655828e+03 +2.2258171440e+03 -9.4309429216e+03 9.9895715397e+03 7.9829010000e+01 0.0000e+00 -1.0000e+00
       22  1    1    2    0    0 +5.5660168051e+01 -5.5454732019e+01 +2.1784811719e+02 2.3158385905e+02 0.0000000000e+00 0.0000e+00 1.0000e+00
       22  1    1    2    0    0 -2.4859758129e+01 +1.9395415374e+01 +1.0158426368e+02 1.0636518386e+02 0.0000000000e+00 0.0000e+00 1.0000e+00
</event>
<event>
 6      1 +1.4834189e-01 1.02344900e+04 7.81653100e-03 6.92475800e-02
  1000022 -1    0    0    0    0 +0.0000000000e+00 +0.0000000000e+00 +4.4721471353e+01 1.0000100000e+04 1.0000000000e+04 0.0000e+00 1.0000e+00
  1000022 -1    0    0    0    0 -0.0000000000e+00 -0.0000000000e+00 -4.4721471353e+01 1.0000100000e+04 1.0000000000e+04 0.0000e+00 1.0000e+00
      -24  1    1    2    0    0 -7.1556673177e+03 +1.9987094785e+03 -6.1226288528e+03 9.6276357992e+03 7.9829010000e+01 0.0000e+00 -1.0000e+00
       24  1    1    2    0    0 +7.1155841404e+03 -1.4395509518e+03 +5.6997359227e+03 9.2302333048e+03 7.9829010000e+01 0.0000e+00 -1.0000e+00
       22  1    1    2    0    0 +4.0645419166e+02 -8.2769832879e+01 +3.3864377500e+02 5.3547685431e+02 0.0000000000e+00 0.0000e+00 -1.0000e+00
       22  1    1    2    0    0 -3.6637101438e+02 -4.7638869386e+02 +8.4249155132e+01 6.0685404173e+02 0.0000000000e+00 0.0000e+00 -1.0000e+00
</event>
<event>
 6      1 +1.4834189e-01 1.02478600e+04 7.81653100e-03 6.92397300e-02
  1000022 -1    0    0    0    0 +0.0000000000e+00 +0.0000000000e+00 +4.4721471353e+01 1.0000100000e+04 1.0000000000e+04 0.0000e+00 1.0000e+00
  1000022 -1    0    0    0    0 -0.0000000000e+00 -0.0000000000e+00 -4.4721471353e+01 1.0000100000e+04 1.0000000000e+04 0.0000e+00 1.0000e+00
      -24  1    1    2    0    0 -3.6972707854e+02 +7.8744557970e+03 +1.1779706327e+03 7.9710563726e+03 7.9829010000e+01 0.0000e+00 1.0000e+00
       24  1    1    2    0    0 +1.2024943571e+02 -1.9620956870e+03 -7.6207507944e+01 1.9688726894e+03 7.9829010000e+01 0.0000e+00 1.0000e+00
       22  1    1    2    0    0 +1.1133536421e+02 -7.7802875382e+03 +1.9268231119e+02 7.7834694200e+03 0.0000000000e+00 0.0000e+00 1.0000e+00
       22  1    1    2    0    0 +1.3814227862e+02 +1.8679274281e+03 -1.2944454359e+03 2.2768015180e+03 0.0000000000e+00 0.0000e+00 1.0000e+00
</event>
<event>
 6      1 +1.4834189e-01 1.00107600e+04 7.81653100e-03 6.93807600e-02
  1000022 -1    0    0    0    0 +0.0000000000e+00 +0.0000000000e+00 +4.4721471353e+01 1.0000100000e+04 1.0000000000e+04 0.0000e+00 1.0000e+00
  1000022 -1    0    0    0    0 -0.0000000000e+00 -0.0000000000e+00 -4.4721471353e+01 1.0000100000e+04 1.0000000000e+04 0.0000e+00 1.0000e+00
      -24  1    1    2    0    0 +3.6715129991e+03 +3.3398826357e+03 -7.1604315555e+03 8.7128053149e+03 7.9829010000e+01 0.0000e+00 1.0000e+00
       24  1    1    2    0    0 -4.4045255540e+03 -3.8288339556e+03 +8.1069595551e+03 9.9894434637e+03 7.9829010000e+01 0.0000e+00 1.0000e+00
       22  1    1    2    0    0 +2.6793012571e+01 +2.7268276693e+01 -7.9117846025e+01 8.7869551018e+01 0.0000000000e+00 0.0000e+00 1.0000e+00
       22  1    1    2    0    0 +7.0621954232e+02 +4.6168304324e+02 -8.6741015361e+02 1.2100816704e+03 0.0000000000e+00 0.0000e+00 -1.0000e+00
</event>
<event>
 6      1 +1.4834189e-01 1.05631900e+04 7.81653100e-03 6.90580000e-02
  1000022 -1    0    0    0    0 +0.0000000000e+00 +0.0000000000e+00 +4.4721471353e+01 1.0000100000e+04 1.0000000000e+04 0.0000e+00 1.0000e+00
  1000022 -1    0    0    0    0 -0.0000000000e+00 -0.0000000000e+00 -4.4721471353e+01 1.0000100000e+04 1.0000000000e+04 0.0000e+00 1.0000e+00
      -24  1    1    2    0    0 -2.8666318804e+03 -5.0734596465e+03 +7.4224754588e+03 9.4370061847e+03 7.9829010000e+01 0.0000e+00 -1.0000e+00
       24  1    1    2    0    0 +1.4240080574e+03 +1.8324023810e+03 -2.0478157946e+03 3.0960328863e+03 7.9829010000e+01 0.0000e+00 -1.0000e+00
       22  1    1    2    0    0 -9.9671204405e+02 -1.3433567726e+02 -8.4064280028e+02 1.3107865160e+03 0.0000000000e+00 0.0000e+00 1.0000e+00
       22  1    1    2    0    0 +2.4393358671e+03 +3.3753929428e+03 -4.5340168639e+03 6.1563744130e+03 0.0000000000e+00 0.0000e+00 -1.0000e+00
</event>
<event>
 6      1 +1.4834189e-01 1.00022400e+04 7.81653100e-03 6.93859000e-02
  1000022 -1    0    0    0    0 +0.0000000000e+00 +0.0000000000e+00 +4.4721471353e+01 1.0000100000e+04 1.0000000000e+04 0.0000e+00 1.0000e+00
  1000022 -1    0    0    0    0 -0.0000000000e+00 -0.0000000000e+00 -4.4721471353e+01 1.0000100000e+04 1.0000000000e+04 0.0000e+00 1.0000e+00
      -24  1    1    2    0    0 +3.3429316709e+03 +8.0186799521e+03 +2.2850469626e+03 8.9834421367e+03 7.9829010000e+01 0.0000e+00 1.0000e+00
       24  1    1    2    0    0 -3.7324375811e+03 -8.9133480287e+03 -2.5639776186e+03 9.9979606559e+03 7.9829010000e+01 0.0000e+00 1.0000e+00
       22  1    1    2    0    0 +3.9279430970e+02 +8.7028255962e+02 +2.7662738809e+02 9.9408340452e+02 0.0000000000e+00 0.0000e+00 1.0000e+00
       22  1    1    2    0    0 -3.2883995135e+00 +2.4385516955e+01 +2.3032678824e+00 2.4713802853e+01 0.0000000000e+00 0.0000e+00 -1.0000e+00
</event>
<event>
 6      1 +1.4834189e-01 1.00030600e+04 7.81653100e-03 6.93854100e-02
  1000022 -1    0    0    0    0 +0.0000000000e+00 +0.0000000000e+00 +4.4721471353e+01 1.0000100000e+04 1.0000000000e+04 0.0000e+00 -1.0000e+00
  1000022 -1    0    0    0    0 -0.0000000000e+00 -0.0000000000e+00 -4.4721471353e+01 1.0000100000e+04 1.0000000000e+04 0.0000e+00 -1.0000e+00
      -24  1    1    2    0    0 +6.8847160395e+03 +7.8800503935e+02 -3.9847947157e+03 7.9940745858e+03 7.9829010000e+01 0.0000e+00 1.0000e+00
       24  1    1    2    0    0 -6.6106414189e+03 -6.4954931278e+02 +3.9567793812e+03 7.7320741086e+03 7.9829010000e+01 0.0000e+00 1.0000e+00
       22  1    1    2    0    0 +1.6528738938e+03 +1.0737285380e+02 -1.1368771331e+03 2.0089824922e+03 0.0000000000e+00 0.0000e+00 1.0000e+00
       22  1    1    2    0    0 -1.9269485144e+03 -2.4582858037e+02 +1.1648924676e+03 2.2650688133e+03 0.0000000000e+00 0.0000e+00 -1.0000e+00
</event>
<event>
 6      1 +1.4834189e-01 1.00037500e+04 7.81653100e-03 6.93849900e-02
  1000022 -1    0    0    0    0 +0.0000000000e+00 +0.0000000000e+00 +4.4721471353e+01 1.0000100000e+04 1.0000000000e+04 0.0000e+00 1.0000e+00
  1000022 -1    0    0    0    0 -0.0000000000e+00 -0.0000000000e+00 -4.4721471353e+01 1.0000100000e+04 1.0000000000e+04 0.0000e+00 1.0000e+00
      -24  1    1    2    0    0 -5.7362144183e+03 +1.6852732879e+03 -7.3900250952e+03 9.5059531603e+03 7.9829010000e+01 0.0000e+00 1.0000e+00
       24  1    1    2    0    0 +5.9503465945e+03 -1.8162236879e+03 +7.8073846788e+03 9.9833321728e+03 7.9829010000e+01 0.0000e+00 1.0000e+00
       22  1    1    2    0    0 -2.2459058715e+02 +1.3684957028e+02 -4.2264721766e+02 4.9779454328e+02 0.0000000000e+00 0.0000e+00 -1.0000e+00
       22  1    1    2    0    0 +1.0458410984e+01 -5.8991702851e+00 +5.2876340295e+00 1.3120123627e+01 0.0000000000e+00 0.0000e+00 1.0000e+00
</event>
<event>
 6      1 +1.4834189e-01 1.00026700e+04 7.81653100e-03 6.93856400e-02
  1000022 -1    0    0    0    0 +0.0000000000e+00 +0.0000000000e+00 +4.4721471353e+01 1.0000100000e+04 1.0000000000e+04 0.0000e+00 1.0000e+00
  1000022 -1    0    0    0    0 -0.0000000000e+00 -0.0000000000e+00 -4.4721471353e+01 1.0000100000e+04 1.0000000000e+04 0.0000e+00 1.0000e+00
      -24  1    1    2    0    0 +1.5257682668e+03 +1.6298196414e+03 -2.9534964462e+03 3.7032141170e+03 7.9829010000e+01 0.0000e+00 1.0000e+00
       24  1    1    2    0    0 -4.0142830032e+03 -4.3314258090e+03 +8.0665037100e+03 9.9975283117e+03 7.9829010000e+01 0.0000e+00 1.0000e+00
       22  1    1    2    0    0 -1.1396114305e+00 +1.7045071784e+01 -1.3885013665e+01 2.2014240636e+01 0.0000000000e+00 0.0000e+00 1.0000e+00
       22  1    1    2    0    0 +2.4896543478e+03 +2.6845610958e+03 -5.0991222501e+03 6.2774433307e+03 0.0000000000e+00 0.0000e+00 1.0000e+00
</event>
<event>
 6      1 +1.4834189e-01 1.05632300e+04 7.81653100e-03 6.90579900e-02
  1000022 -1    0    0    0    0 +0.0000000000e+00 +0.0000000000e+00 +4.4721471353e+01 1.0000100000e+04 1.0000000000e+04 0.0000e+00 1.0000e+00
  1000022 -1    0    0    0    0 -0.0000000000e+00 -0.0000000000e+00 -4.4721471353e+01 1.0000100000e+04 1.0000000000e+04 0.0000e+00 1.0000e+00
      -24  1    1    2    0    0 -8.8350271716e+03 +3.2628822997e+03 +5.8822810922e+02 9.4369746744e+03 7.9829010000e+01 0.0000e+00 1.0000e+00
       24  1    1    2    0    0 +3.5980063925e+03 -1.6296467357e+03 -2.6950178076e+02 3.9598487805e+03 7.9829010000e+01 0.0000e+00 1.0000e+00
       22  1    1    2    0    0 +5.3892730966e+03 -6.5156992031e+02 -8.2094234120e+02 5.4902417250e+03 0.0000000000e+00 0.0000e+00 1.0000e+00
       22  1    1    2    0    0 -1.5225231751e+02 -9.8166564379e+02 +5.0221601273e+02 1.1131348201e+03 0.0000000000e+00 0.0000e+00 1.0000e+00
</event>
<event>
 6      1 +1.4834189e-01 1.00002400e+04 7.81653100e-03 6.93871100e-02
  1000022 -1    0    0    0    0 +0.0000000000e+00 +0.0000000000e+00 +4.4721471353e+01 1.0000100000e+04 1.0000000000e+04 0.0000e+00 1.0000e+00
  1000022 -1    0    0    0    0 -0.0000000000e+00 -0.0000000000e+00 -4.4721471353e+01 1.0000100000e+04 1.0000000000e+04 0.0000e+00 1.0000e+00
      -24  1    1    2    0    0 +3.2037384284e+02 -6.7321794077e+03 -7.3653228612e+03 9.9839487427e+03 7.9829010000e+01 0.0000e+00 1.0000e+00
       24  1    1    2    0    0 -3.1840427076e+02 +6.5572102815e+03 +7.1884219046e+03 9.7354080605e+03 7.9829010000e+01 0.0000e+00 1.0000e+00
       22  1    1    2    0    0 -1.7573825020e+00 +1.8594336513e+02 +1.8856288560e+02 2.6482821838e+02 0.0000000000e+00 0.0000e+00 -1.0000e+00
       22  1    1    2    0    0 -2.1218957900e-01 -1.0974238898e+01 -1.1661929005e+01 1.6014978362e+01 0.0000000000e+00 0.0000e+00 -1.0000e+00
</event>
<event>
 6      1 +1.4834189e-01 1.00076000e+04 7.81653100e-03 6.93826700e-02
  1000022 -1    0    0    0    0 +0.0000000000e+00 +0.0000000000e+00 +4.4721471353e+01 1.0000100000e+04 1.0000000000e+04 0.0000e+00 1.0000e+00
  1000022 -1    0    0    0    0 -0.0000000000e+00 -0.0000000000e+00 -4.4721471353e+01 1.0000100000e+04 1.0000000000e+04 0.0000e+00 1.0000e+00
      -24  1    1    2    0    0 -3.5986292885e+03 -8.3302998866e+03 +4.0811696013e+03 9.9501933118e+03 7.9829010000e+01 0.0000e+00 -1.0000e+00
       24  1    1    2    0    0 +3.1080174877e+03 +7.3699527554e+03 -3.6367773845e+03 8.7868366740e+03 7.9829010000e+01 0.0000e+00 -1.0000e+00
       22  1    1    2    0    0 -7.9244042239e+00 -1.7908680851e+01 +5.3958284073e+01 5.7402207730e+01 0.0000000000e+00 0.0000e+00 -1.0000e+00
       22  1    1    2    0    0 +4.9853620497e+02 +9.7825581201e+02 -4.9835050089e+02 1.2057678065e+03 0.0000000000e+00 0.0000e+00 -1.0000e+00
</event>
<event>
 6      1 +1.4834189e-01 1.00084900e+04 7.81653100e-03 6.93821300e-02
  1000022 -1    0    0    0    0 +0.0000000000e+00 +0.0000000000e+00 +4.4721471353e+01 1.0000100000e+04 1.0000000000e+04 0.0000e+00 1.0000e+00
  1000022 -1    0    0    0    0 -0.0000000000e+00 -0.0000000000e+00 -4.4721471353e+01 1.0000100000e+04 1.0000000000e+04 0.0000e+00 1.0000e+00
      -24  1    1    2    0    0 -4.1471436725e+02 -2.4837418366e+02 +1.3000779152e+02 5.0690476247e+02 7.9829010000e+01 0.0000e+00 0.0000e+00
       24  1    1    2    0    0 +1.9412441237e+02 +1.0697602662e+02 +2.1002591200e+01 2.3652047993e+02 7.9829010000e+01 0.0000e+00 1.0000e+00
       22  1    1    2    0    0 -7.9089342858e+03 -4.8875901114e+03 +1.8766536486e+03 9.4848093049e+03 0.0000000000e+00 0.0000e+00 -1.0000e+00
       22  1    1    2    0    0 +8.1295242407e+03 +5.0289882684e+03 -2.0276640313e+03 9.7719654527e+03 0.0000000000e+00 0.0000e+00 -1.0000e+00
</event>
<event>
 6      1 +1.4834189e-01 1.00091700e+04 7.81653100e-03 6.93817200e-02
  1000022 -1    0    0    0    0 +0.0000000000e+00 +0.0000000000e+00 +4.4721471353e+01 1.0000100000e+04 1.0000000000e+04 0.0000e+00 1.0000e+00
  1000022 -1    0    0    0    0 -0.0000000000e+00 -0.0000000000e+00 -4.4721471353e+01 1.0000100000e+04 1.0000000000e+04 0.0000e+00 1.0000e+00
      -24  1    1    2    0    0 +9.1969804586e+03 -1.2591199393e+03 +3.6938460179e+03 9.9910311606e+03 7.9829010000e+01 0.0000e+00 -1.0000e+00
       24  1    1    2    0    0 -2.1182802697e+03 +4.7631849139e+02 -8.1578635834e+02 2.3207478665e+03 7.9829010000e+01 0.0000e+00 -1.0000e+00
       22  1    1    2    0    0 -2.0632952412e+01 -1.2975624867e+01 +8.0153297037e-01 2.4387046173e+01 0.0000000000e+00 0.0000e+00 -1.0000e+00
       22  1    1    2    0    0 -7.0580672365e+03 +7.9577707281e+02 -2.8788611925e+03 7.6640339267e+03 0.0000000000e+00 0.0000e+00 -1.0000e+00
</event>
<event>
 6      1 +1.4834189e-01 1.00224000e+04 7.81653100e-03 6.93737400e-02
  1000022 -1    0    0    0    0 +0.0000000000e+00 +0.0000000000e+00 +4.4721471353e+01 1.0000100000e+04 1.0000000000e+04 0.0000e+00 -1.0000e+00
  1000022 -1    0    0    0    0 -0.0000000000e+00 -0.0000000000e+00 -4.4721471353e+01 1.0000100000e+04 1.0000000000e+04 0.0000e+00 -1.0000e+00
      -24  1    1    2    0    0 +7.2118352169e+03 +4.6115382165e+03 -3.8471705819e+03 9.3853047939e+03 7.9829010000e+01 0.0000e+00 1.0000e+00
       24  1    1    2    0    0 -7.2874864029e+03 -4.8531229410e+03 +3.9848824835e+03 9.6200790761e+03 7.9829010000e+01 0.0000e+00 1.0000e+00
       22  1    1    2    0    0 -1.9041674824e+02 -2.3446817653e+02 +1.9164532406e+02 3.5771747798e+02 0.0000000000e+00 0.0000e+00 1.0000e+00
       22  1    1    2    0    0 +2.6606793428e+02 +4.7605290103e+02 -3.2935722568e+02 6.3709865196e+02 0.0000000000e+00 0.0000e+00 1.0000e+00
</event>
<event>
 6      1 +1.4834189e-01 1.00755700e+04 7.81653100e-03 6.93418200e-02
  1000022 -1    0    0    0    0 +0.0000000000e+00 +0.0000000000e+00 +4.4721471353e+01 1.0000100000e+04 1.0000000000e+04 0.0000e+00 -1.0000e+00
  1000022 -1    0    0    0    0 -0.0000000000e+00 -0.0000000000e+00 -4.4721471353e+01 1.0000100000e+04 1.0000000000e+04 0.0000e+00 -1.0000e+00
      -24  1    1    2    0    0 +1.8335415201e+03 +1.3505873877e+03 -2.0507080426e+02 2.2878783847e+03 7.9829010000e+01 0.0000e+00 1.0000e+00
       24  1    1    2    0    0 -5.3363844765e+03 -6.1475474092e+03 +3.0570740553e+03 8.6960573181e+03 7.9829010000e+01 0.0000e+00 1.0000e+00
       22  1    1    2    0    0 +4.3838383095e+03 +5.5470714160e+03 -3.2649919478e+03 7.7876961957e+03 0.0000000000e+00 0.0000e+00 1.0000e+00
       22  1    1    2    0    0 -8.8099535305e+02 -7.5011139453e+02 +4.1298869676e+02 1.2285681015e+03 0.0000000000e+00 0.0000e+00 1.0000e+00
</event>
<event>
 6      1 +1.4834189e-01 1.00042500e+04 7.81653100e-03 6.93846900e-02
  1000022 -1    0    0    0    0 +0.0000000000e+00 +0.0000000000e+00 +4.4721471353e+01 1.0000100000e+04 1.0000000000e+04 0.0000e+00 1.0000e+00
  1000022 -1    0    0    0    0 -0.0000000000e+00 -0.0000000000e+00 -4.4721471353e+01 1.0000100000e+04 1.0000000000e+04 0.0000e+00 1.0000e+00
      -24  1    1    2    0    0 +2.8933742059e+03 +6.2037111649e+01 +6.4767797139e+02 2.9667022642e+03 7.9829010000e+01 0.0000e+00 1.0000e+00
       24  1    1    2    0    0 -9.2237439531e+03 -2.9446386596e+02 -2.3053657021e+03 9.5123732671e+03 7.9829010000e+01 0.0000e+00 1.0000e+00
       22  1    1    2    0    0 +6.8187048775e+03 +1.8855145439e+02 +1.6970534510e+03 7.0292445023e+03 0.0000000000e+00 0.0000e+00 1.0000e+00
       22  1    1    2    0    0 -4.8833513035e+02 +4.3875299922e+01 -3.9365720202e+01 4.9187996646e+02 0.0000000000e+00 0.0000e+00 1.0000e+00
</event>
<event>
 6      1 +1.4834189e-01 1.04892900e+04 7.81653100e-03 6.91000200e-02
  1000022 -1    0    0    0    0 +0.0000000000e+00 +0.0000000000e+00 +4.4721471353e+01 1.0000100000e+04 1.0000000000e+04 0.0000e+00 -1.0000e+00
  1000022 -1    0    0    0    0 -0.0000000000e+00 -0.0000000000e+00 -4.4721471353e+01 1.0000100000e+04 1.0000000000e+04 0.0000e+00 -1.0000e+00
      -24  1    1    2    0    0 +5.1223097596e+03 +4.3168043733e+03 -6.3910073157e+03 9.2587366552e+03 7.9829010000e+01 0.0000e+00 -1.0000e+00
       24  1    1    2    0    0 -4.3915350462e+03 -3.5500921313e+03 +7.1226043095e+03 9.0899174377e+03 7.9829010000e+01 0.0000e+00 -1.0000e+00
       22  1    1    2    0    0 +2.0744144611e+02 +7.4239844423e+01 -1.2267893006e+02 2.5217777053e+02 0.0000000000e+00 0.0000e+00 1.0000e+00
       22  1    1    2    0    0 -9.3821615946e+02 -8.4095208639e+02 -6.0891806372e+02 1.3993681366e+03 0.0000000000e+00 0.0000e+00 -1.0000e+00
</event>
<event>
 6      1 +1.4834189e-01 1.00034800e+04 7.81653100e-03 6.93851500e-02
  1000022 -1    0    0    0    0 +0.0000000000e+00 +0.0000000000e+00 +4.4721471353e+01 1.0000100000e+04 1.0000000000e+04 0.0000e+00 1.0000e+00
  1000022 -1    0    0    0    0 -0.0000000000e+00 -0.0000000000e+00 -4.4721471353e+01 1.0000100000e+04 1.0000000000e+04 0.0000e+00 1.0000e+00
      -24  1    1    2    0    0 -6.2795905906e+03 -2.8658692075e+03 -7.0768223335e+03 9.8860634891e+03 7.9829010000e+01 0.0000e+00 1.0000e+00
       24  1    1    2    0    0 +1.7398309524e+03 +9.7201122611e+02 +1.8950488323e+03 2.7512543165e+03 7.9829010000e+01 0.0000e+00 1.0000e+00
       22  1    1    2    0    0 +4.6140894202e+03 +1.8970126237e+03 +5.2636827605e+03 7.2522296072e+03 0.0000000000e+00 0.0000e+00 1.0000e+00
       22  1    1    2    0    0 -7.4329782074e+01 -3.1546422750e+00 -8.1909259345e+01 1.1065258712e+02 0.0000000000e+00 0.0000e+00 -1.0000e+00
</event>
<event>
 6      1 +1.4834189e-01 1.05234400e+04 7.81653100e-03 6.90805600e-02
  1000022 -1    0    0    0    0 +0.0000000000e+00 +0.0000000000e+00 +4.4721471353e+01 1.0000100000e+04 1.0000000000e+04 0.0000e+00 1.0000e+00
  1000022 -1    0    0    0    0 -0.0000000000e+00 -0.0000000000e+00 -4.4721471353e+01 1.0000100000e+04 1.0000000000e+04 0.0000e+00 1.0000e+00
      -24  1    1    2    0    0 -1.1795667830e+03 +7.5386941345e+03 -5.6195519211e+03 9.4767622907e+03 7.9829010000e+01 0.0000e+00 1.0000e+00
       24  1    1    2    0    0 -3.1534135727e+02 -2.0921935977e+03 +1.7651006498e+03 2.7565680105e+03 7.9829010000e+01 0.0000e+00 0.0000e+00
       22  1    1    2    0    0 -5.8387195793e+02 -3.9066503327e+03 +3.2376704919e+03 5.1073802971e+03 0.0000000000e+00 0.0000e+00 1.0000e+00
       22  1    1    2    0    0 +2.0787800982e+03 -1.5398502041e+03 +6.1678077941e+02 2.6594894017e+03 0.0000000000e+00 0.0000e+00 -1.0000e+00
</event>
<event>
 6      1 +1.4834189e-01 1.00032400e+04 7.81653100e-03 6.93853000e-02
  1000022 -1    0    0    0    0 +0.0000000000e+00 +0.0000000000e+00 +4.4721471353e+01 1.0000100000e+04 1.0000000000e+04 0.0000e+00 -1.0000e+00
  1000022 -1    0    0    0    0 -0.0000000000e+00 -0.0000000000e+00 -4.4721471353e+01 1.0000100000e+04 1.0000000000e+04 0.0000e+00 -1.0000e+00
      -24  1    1    2    0    0 +2.0126411869e+03 -6.2175397626e+03 -5.1083167862e+03 8.2951671656e+03 7.9829010000e+01 0.0000e+00 1.0000e+00
       24  1    1    2    0    0 -2.3917390648e+03 +7.4300518284e+03 +6.2204883050e+03 9.9813292377e+03 7.9829010000e+01 0.0000e+00 1.0000e+00
       22  1    1    2    0    0 +3.7034739478e+02 -1.2325588634e+03 -1.1134374428e+03 1.7017936078e+03 0.0000000000e+00 0.0000e+00 -1.0000e+00
       22  1    1    2    0    0 +8.7504831000e+00 +2.0046797566e+01 +1.2659240377e+00 2.1909988836e+01 0.0000000000e+00 0.0000e+00 -1.0000e+00
</event>
<event>
 6      1 +1.4834189e-01 1.00072000e+04 7.81653100e-03 6.93829100e-02
  1000022 -1    0    0    0    0 +0.0000000000e+00 +0.0000000000e+00 +4.4721471353e+01 1.0000100000e+04 1.0000000000e+04 0.0000e+00 1.0000e+00
  1000022 -1    0    0    0    0 -0.0000000000e+00 -0.0000000000e+00 -4.4721471353e+01 1.0000100000e+04 1.0000000000e+04 0.0000e+00 1.0000e+00
      -24  1    1    2    0    0 -5.9655966097e+03 -5.2642099026e+03 +4.8589056373e+03 9.3228528611e+03 7.9829010000e+01 0.0000e+00 -1.0000e+00
       24  1    1    2    0    0 +6.3493279471e+03 +5.6667145974e+03 -5.0385526127e+03 9.8903490742e+03 7.9829010000e+01 0.0000e+00 -1.0000e+00
       22  1    1    2    0    0 +6.7456431475e+01 +5.6551536466e+01 -5.2802188453e+01 1.0264754030e+02 0.0000000000e+00 0.0000e+00 1.0000e+00
       22  1    1    2    0    0 -4.5118776893e+02 -4.5905623135e+02 +2.3244916386e+02 6.8435052433e+02 0.0000000000e+00 0.0000e+00 -1.0000e+00
</event>
<event>
 6      1 +1.4834189e-01 1.00066600e+04 7.81653100e-03 6.93832300e-02
  1000022 -1    0    0    0    0 +0.0000000000e+00 +0.0000000000e+00 +4.4721471353e+01 1.0000100000e+04 1.0000000000e+04 0.0000e+00 -1.0000e+00
  1000022 -1    0    0    0    0 -0.0000000000e+00 -0.0000000000e+00 -4.4721471353e+01 1.0000100000e+04 1.0000000000e+04 0.0000e+00 -1.0000e+00
      -24  1    1    2    0    0 -6.8061382870e+03 -9.5241207316e+02 -7.1487009236e+03 9.9166982764e+03 7.9829010000e+01 0.0000e+00 -1.0000e+00
       24  1    1    2    0    0 +2.2346920231e+03 +2.7042548686e+02 +2.0170015752e+03 3.0235155708e+03 7.9829010000e+01 0.0000e+00 -1.0000e+00
       22  1    1    2    0    0 -5.2441494413e+01 -8.1301017599e+00 -5.5569103762e+01 7.6838364011e+01 0.0000000000e+00 0.0000e+00 -1.0000e+00
       22  1    1    2    0    0 +4.6238877584e+03 +6.9011668807e+02 +5.1872684521e+03 6.9831477888e+03 0.0000000000e+00 0.0000e+00 -1.0000e+00
</event>
<event>
 6      1 +1.4834189e-01 1.00107100e+04 7.81653100e-03 6.93807900e-02
  1000022 -1    0    0    0    0 +0.0000000000e+00 +0.0000000000e+00 +4.4721471353e+01 1.0000100000e+04 1.0000000000e+04 0.0000e+00 -1.0000e+00
  1000022 -1    0    0    0    0 -0.0000000000e+00 -0.0000000000e+00 -4.4721471353e+01 1.0000100000e+04 1.0000000000e+04 0.0000e+00 -1.0000e+00
      -24  1    1    2    0    0 -7.6639000555e+02 -2.6434531150e+02 -4.2524390012e+02 9.1893260348e+02 7.9829010000e+01 0.0000e+00 -1.0000e+00
       24  1    1    2    0    0 +1.9600687412e+03 +6.7080117639e+02 +2.6425246243e+02 2.0899870151e+03 7.9829010000e+01 0.0000e+00 -1.0000e+00
       22  1    1    2    0    0 -8.8388024542e+03 -1.5353197901e+03 -1.4760571557e+03 9.0917754267e+03 0.0000000000e+00 0.0000e+00 -1.0000e+00
       22  1    1    2    0    0 +7.6451237185e+03 +1.1288639252e+03 +1.6370485934e+03 7.8995049548e+03 0.0000000000e+00 0.0000e+00 -1.0000e+00
</event>
<event>
 6      1 +1.4834189e-01 6.09597000e+03 7.81653100e-03 7.25124500e-02
  1000022 -1    0    0    0    0 +0.0000000000e+00 +0.0000000000e+00 +4.4721471353e+01 1.0000100000e+04 1.0000000000e+04 0.0000e+00 -1.0000e+00
  1000022 -1    0    0    0    0 -0.0000000000e+00 -0.0000000000e+00 -4.4721471353e+01 1.0000100000e+04 1.0000000000e+04 0.0000e+00 -1.0000e+00
      -24  1    1    2    0    0 -6.4545670730e+03 -7.0703120301e+02 +9.8448673174e+02 6.5678699757e+03 7.9829010000e+01 0.0000e+00 1.0000e+00
       24  1    1    2    0    0 +2.4964630363e+03 +4.1147929979e+03 +3.7854779086e+03 6.1237296458e+03 7.9829010000e+01 0.0000e+00 1.0000e+00
       22  1    1    2    0    0 +7.7733593535e+01 +9.4848645297e+01 +1.0452856743e+02 1.6113658333e+02 0.0000000000e+00 0.0000e+00 1.0000e+00
       22  1    1    2    0    0 +3.8803704431e+03 -3.5026104402e+03 -4.8744932078e+03 7.1474637952e+03 0.0000000000e+00 0.0000e+00 1.0000e+00
</event>
<event>
 6      1 +1.4834189e-01 1.00120000e+04 7.81653100e-03 6.93800100e-02
  1000022 -1    0    0    0    0 +0.0000000000e+00 +0.0000000000e+00 +4.4721471353e+01 1.0000100000e+04 1.0000000000e+04 0.0000e+00 -1.0000e+00
  1000022 -1    0    0    0    0 -0.0000000000e+00 -0.0000000000e+00 -4.4721471353e+01 1.0000100000e+04 1.0000000000e+04 0.0000e+00 -1.0000e+00
      -24  1    1    2    0    0 +1.7896141725e+03 -6.8858211487e+03 -5.5007208695e+03 8.9934172890e+03 7.9829010000e+01 0.0000e+00 -1.0000e+00
       24  1    1    2    0    0 -2.0250296500e+03 +7.4836451994e+03 +6.2718905537e+03 9.9723956170e+03 7.9829010000e+01 0.0000e+00 -1.0000e+00
       22  1    1    2    0    0 -5.3772809633e-01 +1.2873866938e+01 +9.1456307850e+00 1.5800891237e+01 0.0000000000e+00 0.0000e+00 1.0000e+00
       22  1    1    2    0    0 +2.3595320558e+02 -6.1069791762e+02 -7.8031531491e+02 1.0185862028e+03 0.0000000000e+00 0.0000e+00 -1.0000e+00
</event>
<event>
 6      1 +1.4834189e-01 1.00134800e+04 7.81653100e-03 6.93791200e-02
  1000022 -1    0    0    0    0 +0.0000000000e+00 +0.0000000000e+00 +4.4721471353e+01 1.0000100000e+04 1.0000000000e+04 0.0000e+00 -1.0000e+00
  1000022 -1    0    0    0    0 -0.0000000000e+00 -0.0000000000e+00 -4.4721471353e+01 1.0000100000e+04 1.0000000000e+04 0.0000e+00 -1.0000e+00
      -24  1    1    2    0    0 -6.4092547723e+02 +2.3493032853e+02 -1.2596028906e+03 1.4349041221e+03 7.9829010000e+01 0.0000e+00 0.0000e+00
       24  1    1    2    0    0 +1.4445516285e+01 -2.3549805923e+01 +1.2315551617e+02 1.4934262051e+02 7.9829010000e+01 0.0000e+00 -1.0000e+00
       22  1    1    2    0    0 +2.9458050587e+03 +2.5071552983e+02 +9.3826088514e+03 9.8373764073e+03 0.0000000000e+00 0.0000e+00 -1.0000e+00
       22  1    1    2    0    0 -2.3193250977e+03 -4.6209605244e+02 -8.2461614769e+03 8.5785768501e+03 0.0000000000e+00 0.0000e+00 -1.0000e+00
</event>
<event>
 6      1 +1.4834189e-01 1.00119500e+04 7.81653100e-03 6.93800400e-02
  1000022 -1    0    0    0    0 +0.0000000000e+00 +0.0000000000e+00 +4.4721471353e+01 1.0000100000e+04 1.0000000000e+04 0.0000e+00 1.0000e+00
  1000022 -1    0    0    0    0 -0.0000000000e+00 -0.0000000000e+00 -4.4721471353e+01 1.0000100000e+04 1.0000000000e+04 0.0000e+00 1.0000e+00
      -24  1    1    2    0    0 -5.3416562697e+03 +8.2739815720e+03 +1.0457507140e+03 9.9041420620e+03 7.9829010000e+01 0.0000e+00 -1.0000e+00
       24  1    1    2    0    0 +5.1234316409e+03 -7.9573809557e+03 -9.5917440290e+02 9.5129307608e+03 7.9829010000e+01 0.0000e+00 -1.0000e+00
       22  1    1    2    0    0 -2.9792069273e+00 +1.0118484512e+02 -3.7098967133e+01 1.0781271687e+02 0.0000000000e+00 0.0000e+00 -1.0000e+00
       22  1    1    2    0    0 +2.2120383565e+02 -4.1778546137e+02 -4.9477343997e+01 4.7531446034e+02 0.0000000000e+00 0.0000e+00 -1.0000e+00
</event>
<event>
 6      1 +1.4834189e-01 1.00015300e+04 7.81653100e-03 6.93863300e-02
  1000022 -1    0    0    0    0 +0.0000000000e+00 +0.0000000000e+00 +4.4721471353e+01 1.0000100000e+04 1.0000000000e+04 0.0000e+00 1.0000e+00
  1000022 -1    0    0    0    0 -0.0000000000e+00 -0.0000000000e+00 -4.4721471353e+01 1.0000100000e+04 1.0000000000e+04 0.0000e+00 1.0000e+00
      -24  1    1    2    0    0 -2.0619329934e+03 +5.1001484696e+02 -9.5091012065e+03 9.7437703811e+03 7.9829010000e+01 0.0000e+00 1.0000e+00
       24  1    1    2    0    0 +2.0470214245e+03 -5.5142464832e+02 +9.4875754796e+03 9.7218736367e+03 7.9829010000e+01 0.0000e+00 1.0000e+00
       22  1    1    2    0    0 -4.3619584553e+01 +5.1184151408e+01 -2.4883355935e+02 2.5776079176e+02 0.0000000000e+00 0.0000e+00 1.0000e+00
       22  1    1    2    0    0 +5.8531153449e+01 -9.7743500524e+00 +2.7035928618e+02 2.7679519047e+02 0.0000000000e+00 0.0000e+00 1.0000e+00
</event>
<event>
 6      1 +1.4834189e-01 1.00252400e+04 7.81653100e-03 6.93720400e-02
  1000022 -1    0    0    0    0 +0.0000000000e+00 +0.0000000000e+00 +4.4721471353e+01 1.0000100000e+04 1.0000000000e+04 0.0000e+00 1.0000e+00
  1000022 -1    0    0    0    0 -0.0000000000e+00 -0.0000000000e+00 -4.4721471353e+01 1.0000100000e+04 1.0000000000e+04 0.0000e+00 1.0000e+00
      -24  1    1    2    0    0 -2.7418677926e+02 -5.0367437345e+02 -3.3534652079e+01 5.7996854063e+02 7.9829010000e+01 0.0000e+00 -1.0000e+00
       24  1    1    2    0    0 +2.0539335151e+03 +5.7917654354e+03 +2.8405922287e+03 6.7704155430e+03 7.9829010000e+01 0.0000e+00 1.0000e+00
       22  1    1    2    0    0 -2.7515406952e+03 -8.0790664924e+03 -4.0460866055e+03 9.4452691018e+03 0.0000000000e+00 0.0000e+00 1.0000e+00
       22  1    1    2    0    0 +9.7179395933e+02 +2.7909754304e+03 +1.2390290288e+03 3.2045468146e+03 0.0000000000e+00 0.0000e+00 1.0000e+00
</event>
<event>
 6      1 +1.4834189e-01 1.00375000e+04 7.81653100e-03 6.93646600e-02
  1000022 -1    0    0    0    0 +0.0000000000e+00 +0.0000000000e+00 +4.4721471353e+01 1.0000100000e+04 1.0000000000e+04 0.0000e+00 1.0000e+00
  1000022 -1    0    0    0    0 -0.0000000000e+00 -0.0000000000e+00 -4.4721471353e+01 1.0000100000e+04 1.0000000000e+04 0.0000e+00 1.0000e+00
      -24  1    1    2    0    0 +1.5667075577e+03 +8.5224609054e+03 +4.9155016976e+03 9.9627025483e+03 7.9829010000e+01 0.0000e+00 -1.0000e+00
       24  1    1    2    0    0 -1.6111950514e+02 -1.1689258852e+03 -7.3312132040e+02 1.3914692815e+03 7.9829010000e+01 0.0000e+00 -1.0000e+00
       22  1    1    2    0    0 -1.3347391196e+03 -7.2596561437e+03 -3.9181310156e+03 8.3567868525e+03 0.0000000000e+00 0.0000e+00 -1.0000e+00
       22  1    1    2    0    0 -7.0848932945e+01 -9.3878876537e+01 -2.6424936163e+02 2.8924131773e+02 0.0000000000e+00 0.0000e+00 -1.0000e+00
</event>
<event>
 6      1 +1.4834189e-01 1.00550800e+04 7.81653100e-03 6.93541000e-02
  1000022 -1    0    0    0    0 +0.0000000000e+00 +0.0000000000e+00 +4.4721471353e+01 1.0000100000e+04 1.0000000000e+04 0.0000e+00 -1.0000e+00
  1000022 -1    0    0    0    0 -0.0000000000e+00 -0.0000000000e+00 -4.4721471353e+01 1.0000100000e+04 1.0000000000e+04 0.0000e+00 -1.0000e+00
      -24  1    1    2    0    0 +3.1219190514e+03 -6.2510840009e+02 -4.6380488139e+02 3.2184820512e+03 7.9829010000e+01 0.0000e+00 1.0000e+00
       24  1    1    2    0    0 -9.7433312786e+03 +8.3945579541e+02 +1.8060403170e+03 9.9451166274e+03 7.9829010000e+01 0.0000e+00 1.0000e+00
       22  1    1    2    0    0 +8.0056858954e+01 +5.9807758553e+01 +9.0217975309e+01 1.3463042642e+02 0.0000000000e+00 0.0000e+00 -1.0000e+00
       22  1    1    2    0    0 +6.5413553682e+03 -2.7415515387e+02 -1.4324534109e+03 6.7019708949e+03 0.0000000000e+00 0.0000e+00 1.0000e+00
</event>
<event>
 6      1 +1.4834189e-01 1.00916700e+04 7.81653100e-03 6.93322000e-02
  1000022 -1    0    0    0    0 +0.0000000000e+00 +0.0000000000e+00 +4.4721471353e+01 1.0000100000e+04 1.0000000000e+04 0.0000e+00 -1.0000e+00
  1000022 -1    0    0    0    0 -0.0000000000e+00 -0.0000000000e+00 -4.4721471353e+01 1.0000100000e+04 1.0000000000e+04 0.0000e+00 -1.0000e+00
      -24  1    1    2    0    0 +6.9535366059e+03 +6.5826731621e+02 -6.6592784305e+03 9.6507693514e+03 7.9829010000e+01 0.0000e+00 -1.0000e+00
       24  1    1    2    0    0 -7.3368294034e+03 -4.6735443499e+02 +6.5093027738e+03 9.8196171582e+03 7.9829010000e+01 0.0000e+00 -1.0000e+00
       22  1    1    2    0    0 -1.9845383048e+01 -2.5498993510e+01 +8.2838588674e+01 8.8917206838e+01 0.0000000000e+00 0.0000e+00 1.0000e+00
       22  1    1    2    0    0 +4.0313818059e+02 -1.6541388770e+02 +6.7137068038e+01 4.4089628350e+02 0.0000000000e+00 0.0000e+00 -1.0000e+00
</event>
<event>
 6      1 +1.4834189e-01 1.00154300e+04 7.81653100e-03 6.93779500e-02
  1000022 -1    0    0    0    0 +0.0000000000e+00 +0.0000000000e+00 +4.4721471353e+01 1.0000100000e+04 1.0000000000e+04 0.0000e+00 1.0000e+00
  1000022 -1    0    0    0    0 -0.0000000000e+00 -0.0000000000e+00 -4.4721471353e+01 1.0000100000e+04 1.0000000000e+04 0.0000e+00 1.0000e+00
      -24  1    1    2    0    0 -3.9349986072e+03 +8.9950913930e+03 -1.7526414278e+03 9.9736657179e+03 7.9829010000e+01 0.0000e+00 -1.0000e+00
       24  1    1    2    0    0 +3.8404774897e+03 -8.9095249112e+03 +1.8100598211e+03 9.8697310358e+03 7.9829010000e+01 0.0000e+00 -1.0000e+00
       22  1    1    2    0    0 +2.7582366973e+00 +1.0477073013e+01 +2.4401977569e+00 1.1105471341e+01 0.0000000000e+00 0.0000e+00 1.0000e+00
       22  1    1    2    0    0 +9.1762880772e+01 -9.6043554844e+01 -5.9858591058e+01 1.4569777499e+02 0.0000000000e+00 0.0000e+00 -1.0000e+00
</event>
<event>
 6      1 +1.4834189e-01 1.00029900e+04 7.81653100e-03 6.93854500e-02
  1000022 -1    0    0    0    0 +0.0000000000e+00 +0.0000000000e+00 +4.4721471353e+01 1.0000100000e+04 1.0000000000e+04 0.0000e+00 1.0000e+00
  1000022 -1    0    0    0    0 -0.0000000000e+00 -0.0000000000e+00 -4.4721471353e+01 1.0000100000e+04 1.0000000000e+04 0.0000e+00 1.0000e+00
      -24  1    1    2    0    0 +3.4083721463e+03 +1.4081857907e+03 -5.9248228282e+03 6.9792468164e+03 7.9829010000e+01 0.0000e+00 -1.0000e+00
       24  1    1    2    0    0 -4.6687329798e+03 -1.7256497118e+03 +7.8796591111e+03 9.3204256846e+03 7.9829010000e+01 0.0000e+00 -1.0000e+00
       22  1    1    2    0    0 +1.6248741772e+03 +4.3869186026e+02 -2.5120388171e+03 3.0237403425e+03 0.0000000000e+00 0.0000e+00 -1.0000e+00
       22  1    1    2    0    0 -3.6451334378e+02 -1.2122793913e+02 +5.5720253423e+02 6.7678715648e+02 0.0000000000e+00 0.0000e+00 1.0000e+00
</event>
<event>
 6      1 +1.4834189e-01 1.01228200e+04 7.81653100e-03 6.93136200e-02
  1000022 -1    0    0    0    0 +0.0000000000e+00 +0.0000000000e+00 +4.4721471353e+01 1.0000100000e+04 1.0000000000e+04 0.0000e+00 -1.0000e+00
  1000022 -1    0    0    0    0 -0.0000000000e+00 -0.0000000000e+00 -4.4721471353e+01 1.0000100000e+04 1.0000000000e+04 0.0000e+00 -1.0000e+00
      -24  1    1    2    0    0 -3.5482600944e+03 +4.5270320457e+03 +2.7443223949e+03 6.3735270391e+03 7.9829010000e+01 0.0000e+00 -1.0000e+00
       24  1    1    2    0    0 +5.4755787093e+03 -6.0570982857e+03 -5.5575102174e+03 9.8773829698e+03 7.9829010000e+01 0.0000e+00 -1.0000e+00
       22  1    1    2    0    0 -1.8711369243e+03 +1.4530262200e+03 +2.7691561586e+03 3.6442645920e+03 0.0000000000e+00 0.0000e+00 -1.0000e+00
       22  1    1    2    0    0 -5.6181690600e+01 +7.7040019969e+01 +4.4031663884e+01 1.0502539912e+02 0.0000000000e+00 0.0000e+00 -1.0000e+00
</event>
<event>
 6      1 +1.4834189e-01 1.03014800e+04 7.81653100e-03 6.92083700e-02
  1000022 -1    0    0    0    0 +0.0000000000e+00 +0.0000000000e+00 +4.4721471353e+01 1.0000100000e+04 1.0000000000e+04 0.0000e+00 -1.0000e+00
  1000022 -1    0    0    0    0 -0.0000000000e+00 -0.0000000000e+00 -4.4721471353e+01 1.0000100000e+04 1.0000000000e+04 0.0000e+00 -1.0000e+00
      -24  1    1    2    0    0 -4.0897264749e+03 -2.8986072323e+03 +8.3024755448e+03 9.6987246259e+03 7.9829010000e+01 0.0000e+00 -1.0000e+00
       24  1    1    2    0    0 +3.4382489441e+03 +2.7897052217e+03 -8.4552783262e+03 9.5447428080e+03 7.9829010000e+01 0.0000e+00 -1.0000e+00
       22  1    1    2    0    0 +6.2381972256e+02 +8.5987746576e+01 +2.3094493754e+02 6.7073131953e+02 0.0000000000e+00 0.0000e+00 1.0000e+00
       22  1    1    2    0    0 +2.7657808259e+01 +2.2914264040e+01 -7.8142156119e+01 8.6001246602e+01 0.0000000000e+00 0.0000e+00 -1.0000e+00
</event>
<event>
 6      1 +1.4834189e-01 1.00036400e+04 7.81653100e-03 6.93850600e-02
  1000022 -1    0    0    0    0 +0.0000000000e+00 +0.0000000000e+00 +4.4721471353e+01 1.0000100000e+04 1.0000000000e+04 0.0000e+00 -1.0000e+00
  1000022 -1    0    0    0    0 -0.0000000000e+00 -0.0000000000e+00 -4.4721471353e+01 1.0000100000e+04 1.0000000000e+04 0.0000e+00 -1.0000e+00
      -24  1    1    2    0    0 -9.8390348500e+03 -1.3331333362e+03 -9.9534749789e+02 9.9790250318e+03 7.9829010000e+01 0.0000e+00 1.0000e+00
       24  1    1    2    0    0 +4.3849224896e+03 +7.6959095476e+02 +5.0015359922e+02 4.4806630950e+03 7.9829010000e+01 0.0000e+00 1.0000e+00
       22  1    1    2    0    0 -1.7385920571e+01 -2.1184645051e+00 -8.1503486073e-01 1.7533465367e+01 0.0000000000e+00 0.0000e+00 -1.0000e+00
       22  1    1    2    0    0 +5.4714982810e+03 +5.6566084591e+02 +4.9600893353e+02 5.5229784078e+03 0.0000000000e+00 0.0000e+00 1.0000e+00
</event>
<event>
 6      1 +1.4834189e-01 1.09932900e+04 7.81653100e-03 6.88201600e-02
  1000022 -1    0    0    0    0 +0.0000000000e+00 +0.0000000000e+00 +4.4721471353e+01 1.0000100000e+04 1.0000000000e+04 0.0000e+00 -1.0000e+00
  1000022 -1    0    0    0    0 -0.0000000000e+00 -0.0000000000e+00 -4.4721471353e+01 1.0000100000e+04 1.0000000000e+04 0.0000e+00 -1.0000e+00
      -24  1    1    2    0    0 -7.6194177276e+03 +4.8008319455e+03 +1.2061786680e+02 9.0069104146e+03 7.9829010000e+01 0.0000e+00 -1.0000e+00
       24  1    1    2    0    0 +2.3651277056e+03 -1.3389851067e+03 -7.1734720011e+02 2.8120579397e+03 7.9829010000e+01 0.0000e+00 -1.0000e+00
       22  1    1    2    0    0 +4.8257992493e+03 -2.7713870905e+03 -1.6398908927e+03 5.8015659041e+03 0.0000000000e+00 0.0000e+00 -1.0000e+00
       22  1    1    2    0    0 +4.2849077271e+02 -6.9045974826e+02 +2.2366202260e+03 2.3796657415e+03 0.0000000000e+00 0.0000e+00 -1.0000e+00
</event>
<event>
 6      1 +1.4834189e-01 1.00509000e+04 7.81653100e-03 6.93566100e-02
  1000022 -1    0    0    0    0 +0.0000000000e+00 +0.0000000000e+00 +4.4721471353e+01 1.0000100000e+04 1.0000000000e+04 0.0000e+00 1.0000e+00
  1000022 -1    0    0    0    0 -0.0000000000e+00 -0.0000000000e+00 -4.4721471353e+01 1.0000100000e+04 1.0000000000e+04 0.0000e+00 1.0000e+00
      -24  1    1    2    0    0 -3.2873903157e+03 -7.0708613030e+03 -6.1788456486e+03 9.9492975065e+03 7.9829010000e+01 0.0000e+00 -1.0000e+00
       24  1    1    2    0    0 +3.0858463150e+03 +6.6841695486e+03 +6.1482953801e+03 9.5921050237e+03 7.9829010000e+01 0.0000e+00 -1.0000e+00
       22  1    1    2    0    0 +6.1818470783e+01 +1.3225999593e+02 +7.6640018765e+01 1.6488760515e+02 0.0000000000e+00 0.0000e+00 1.0000e+00
       22  1    1    2    0    0 +1.3972552996e+02 +2.5443175841e+02 -4.6089750300e+01 2.9390986457e+02 0.0000000000e+00 0.0000e+00 -1.0000e+00
</event>
<event>
 6      1 +1.4834189e-01 1.00045700e+04 7.81653100e-03 6.93845000e-02
  1000022 -1    0    0    0    0 +0.0000000000e+00 +0.0000000000e+00 +4.4721471353e+01 1.0000100000e+04 1.0000000000e+04 0.0000e+00 1.0000e+00
  1000022 -1    0    0    0    0 -0.0000000000e+00 -0.0000000000e+00 -4.4721471353e+01 1.0000100000e+04 1.0000000000e+04 0.0000e+00 1.0000e+00
      -24  1    1    2    0    0 -1.3674633875e+03 +1.8246375460e+03 +7.4542005771e+03 7.7955588129e+03 7.9829010000e+01 0.0000e+00 1.0000e+00
       24  1    1    2    0    0 +1.6351610044e+03 -2.3110743245e+03 -8.7151121800e+03 9.1637529989e+03 7.9829010000e+01 0.0000e+00 1.0000e+00
       22  1    1    2    0    0 +1.5017858355e+02 -2.5804542696e+02 -7.7645288565e+02 8.3187747473e+02 0.0000000000e+00 0.0000e+00 -1.0000e+00
       22  1    1    2    0    0 -4.1787620042e+02 +7.4448220541e+02 +2.0373644886e+03 2.2090107135e+03 0.0000000000e+00 0.0000e+00 1.0000e+00
</event>
<event>
 6      1 +1.4834189e-01 1.00142200e+04 7.81653100e-03 6.93786700e-02
  1000022 -1    0    0    0    0 +0.0000000000e+00 +0.0000000000e+00 +4.4721471353e+01 1.0000100000e+04 1.0000000000e+04 0.0000e+00 -1.0000e+00
  1000022 -1    0    0    0    0 -0.0000000000e+00 -0.0000000000e+00 -4.4721471353e+01 1.0000100000e+04 1.0000000000e+04 0.0000e+00 -1.0000e+00
      -24  1    1    2    0    0 -5.8140511036e+03 +5.9617393112e+03 -5.5070363347e+03 9.9839545128e+03 7.9829010000e+01 0.0000e+00 -1.0000e+00
       24  1    1    2    0    0 +5.7763917309e+03 -5.9484106236e+03 +5.4767530967e+03 9.9373783026e+03 7.9829010000e+01 0.0000e+00 -1.0000e+00
       22  1    1    2    0    0 +2.6062925852e+01 -3.7598009544e+01 +1.6406640551e+01 4.8601072825e+01 0.0000000000e+00 0.0000e+00 -1.0000e+00
       22  1    1    2    0    0 +1.1596446899e+01 +2.4269321938e+01 +1.3876597457e+01 3.0266111825e+01 0.0000000000e+00 0.0000e+00 1.0000e+00
</event>
<event>
 6      1 +1.4834189e-01 9.25918900e+03 7.81653100e-03 6.98551900e-02
  1000022 -1    0    0    0    0 +0.0000000000e+00 +0.0000000000e+00 +4.4721471353e+01 1.0000100000e+04 1.0000000000e+04 0.0000e+00 -1.0000e+00
  1000022 -1    0    0    0    0 -0.0000000000e+00 -0.0000000000e+00 -4.4721471353e+01 1.0000100000e+04 1.0000000000e+04 0.0000e+00 -1.0000e+00
      -24  1    1    2    0    0 +7.4648239037e+03 -3.8172491116e+03 -4.4020495519e+03 9.4699207822e+03 7.9829010000e+01 0.0000e+00 1.0000e+00
       24  1    1    2    0    0 -1.1497786510e+03 -8.3591133928e+02 -1.0203267298e+02 1.4274179664e+03 7.9829010000e+01 0.0000e+00 1.0000e+00
       22  1    1    2    0    0 +2.3352763288e+01 -1.1201914190e+01 -1.2984003523e+01 2.8972724798e+01 0.0000000000e+00 0.0000e+00 -1.0000e+00
       22  1    1    2    0    0 -6.3383980160e+03 +4.6643623651e+03 +4.5170662284e+03 9.0738885266e+03 0.0000000000e+00 0.0000e+00 1.0000e+00
</event>
<event>
 6      1 +1.4834189e-01 1.00077300e+04 7.81653100e-03 6.93825900e-02
  1000022 -1    0    0    0    0 +0.0000000000e+00 +0.0000000000e+00 +4.4721471353e+01 1.0000100000e+04 1.0000000000e+04 0.0000e+00 -1.0000e+00
  1000022 -1    0    0    0    0 -0.0000000000e+00 -0.0000000000e+00 -4.4721471353e+01 1.0000100000e+04 1.0000000000e+04 0.0000e+00 -1.0000e+00
      -24  1    1    2    0    0 -4.7178243081e+03 -1.9854423135e+03 +8.5339123686e+03 9.9515767780e+03 7.9829010000e+01 0.0000e+00 1.0000e+00
       24  1    1    2    0    0 +8.0312349651e+02 +1.4451372583e+02 -1.0161243841e+03 1.3056695609e+03 7.9829010000e+01 0.0000e+00 1.0000e+00
       22  1    1    2    0    0 -1.1771328279e+01 -3.4679760044e+01 +1.8182510185e+01 4.0888306431e+01 0.0000000000e+00 0.0000e+00 -1.0000e+00
       22  1    1    2    0    0 +3.9264721399e+03 +1.8756083477e+03 -7.5359704947e+03 8.7020653547e+03 0.0000000000e+00 0.0000e+00 1.0000e+00
</event>
<event>
 6      1 +1.4834189e-01 1.02586400e+04 7.81653100e-03 6.92334100e-02
  1000022 -1    0    0    0    0 +0.0000000000e+00 +0.0000000000e+00 +4.4721471353e+01 1.0000100000e+04 1.0000000000e+04 0.0000e+00 1.0000e+00
  1000022 -1    0    0    0    0 -0.0000000000e+00 -0.0000000000e+00 -4.4721471353e+01 1.0000100000e+04 1.0000000000e+04 0.0000e+00 1.0000e+00
      -24  1    1    2    0    0 -1.0222476524e+03 -6.7278110746e+01 +1.0198839323e+03 1.4477750217e+03 7.9829010000e+01 0.0000e+00 -1.0000e+00
       24  1    1    2    0    0 +5.8041065825e+03 +7.1021163671e+03 -3.1076151734e+03 9.6845936853e+03 7.9829010000e+01 0.0000e+00 1.0000e+00
       22  1    1    2    0    0 +1.2832159476e+01 +4.7993305414e+01 -2.7875424358e+01 5.6965436578e+01 0.0000000000e+00 0.0000e+00 1.0000e+00
       22  1    1    2    0    0 -4.7946910895e+03 -7.0828315618e+03 +2.1156066654e+03 8.8108658564e+03 0.0000000000e+00 0.0000e+00 1.0000e+00
</event>
</LesHouchesEvents>
